
                                 *****************
                                 * O   R   C   A *
                                 *****************

                                            #,                                       
                                            ###                                      
                                            ####                                     
                                            #####                                    
                                            ######                                   
                                           ########,                                 
                                     ,,################,,,,,                         
                               ,,#################################,,                 
                          ,,##########################################,,             
                       ,#########################################, ''#####,          
                    ,#############################################,,   '####,        
                  ,##################################################,,,,####,       
                ,###########''''           ''''###############################       
              ,#####''   ,,,,##########,,,,          '''####'''          '####       
            ,##' ,,,,###########################,,,                        '##       
           ' ,,###''''                  '''############,,,                           
         ,,##''                                '''############,,,,        ,,,,,,###''
      ,#''                                            '''#######################'''  
     '                                                          ''''####''''         
             ,#######,   #######,   ,#######,      ##                                
            ,#'     '#,  ##    ##  ,#'     '#,    #''#        ######   ,####,        
            ##       ##  ##   ,#'  ##            #'  '#       #        #'  '#        
            ##       ##  #######   ##           ,######,      #####,   #    #        
            '#,     ,#'  ##    ##  '#,     ,#' ,#      #,         ##   #,  ,#        
             '#######'   ##     ##  '#######'  #'      '#     #####' # '####'        



                  #######################################################
                  #                        -***-                        #
                  #          Department of theory and spectroscopy      #
                  #    Directorship and core code : Frank Neese         #
                  #        Max Planck Institute fuer Kohlenforschung    #
                  #                Kaiser Wilhelm Platz 1               #
                  #                 D-45470 Muelheim/Ruhr               #
                  #                      Germany                        #
                  #                                                     #
                  #                  All rights reserved                #
                  #                        -***-                        #
                  #######################################################


                         Program Version 5.0.4 -  RELEASE  -


 With contributions from (in alphabetic order):
   Daniel Aravena         : Magnetic Suceptibility
   Michael Atanasov       : Ab Initio Ligand Field Theory (pilot matlab implementation)
   Alexander A. Auer      : GIAO ZORA, VPT2 properties, NMR spectrum
   Ute Becker             : Parallelization
   Giovanni Bistoni       : ED, misc. LED, open-shell LED, HFLD
   Martin Brehm           : Molecular dynamics
   Dmytro Bykov           : SCF Hessian
   Vijay G. Chilkuri      : MRCI spin determinant printing, contributions to CSF-ICE
   Dipayan Datta          : RHF DLPNO-CCSD density
   Achintya Kumar Dutta   : EOM-CC, STEOM-CC
   Dmitry Ganyushin       : Spin-Orbit,Spin-Spin,Magnetic field MRCI
   Miquel Garcia          : C-PCM and meta-GGA Hessian, CC/C-PCM, Gaussian charge scheme
   Yang Guo               : DLPNO-NEVPT2, F12-NEVPT2, CIM, IAO-localization
   Andreas Hansen         : Spin unrestricted coupled pair/coupled cluster methods
   Benjamin Helmich-Paris : MC-RPA, TRAH-SCF, COSX integrals
   Lee Huntington         : MR-EOM, pCC
   Robert Izsak           : Overlap fitted RIJCOSX, COSX-SCS-MP3, EOM
   Marcus Kettner         : VPT2
   Christian Kollmar      : KDIIS, OOCD, Brueckner-CCSD(T), CCSD density, CASPT2, CASPT2-K
   Simone Kossmann        : Meta GGA functionals, TD-DFT gradient, OOMP2, MP2 Hessian
   Martin Krupicka        : Initial AUTO-CI
   Lucas Lang             : DCDCAS
   Marvin Lechner         : AUTO-CI (C++ implementation), FIC-MRCC
   Dagmar Lenk            : GEPOL surface, SMD
   Dimitrios Liakos       : Extrapolation schemes; Compound Job, initial MDCI parallelization
   Dimitrios Manganas     : Further ROCIS development; embedding schemes
   Dimitrios Pantazis     : SARC Basis sets
   Anastasios Papadopoulos: AUTO-CI, single reference methods and gradients
   Taras Petrenko         : DFT Hessian,TD-DFT gradient, ASA, ECA, R-Raman, ABS, FL, XAS/XES, NRVS
   Peter Pinski           : DLPNO-MP2, DLPNO-MP2 Gradient
   Christoph Reimann      : Effective Core Potentials
   Marius Retegan         : Local ZFS, SOC
   Christoph Riplinger    : Optimizer, TS searches, QM/MM, DLPNO-CCSD(T), (RO)-DLPNO pert. Triples
   Tobias Risthaus        : Range-separated hybrids, TD-DFT gradient, RPA, STAB
   Michael Roemelt        : Original ROCIS implementation
   Masaaki Saitow         : Open-shell DLPNO-CCSD energy and density
   Barbara Sandhoefer     : DKH picture change effects
   Avijit Sen             : IP-ROCIS
   Kantharuban Sivalingam : CASSCF convergence, NEVPT2, FIC-MRCI
   Bernardo de Souza      : ESD, SOC TD-DFT
   Georgi Stoychev        : AutoAux, RI-MP2 NMR, DLPNO-MP2 response
   Willem Van den Heuvel  : Paramagnetic NMR
   Boris Wezisla          : Elementary symmetry handling
   Frank Wennmohs         : Technical directorship


 We gratefully acknowledge several colleagues who have allowed us to
 interface, adapt or use parts of their codes:
   Stefan Grimme, W. Hujo, H. Kruse, P. Pracht,  : VdW corrections, initial TS optimization,
                  C. Bannwarth, S. Ehlert          DFT functionals, gCP, sTDA/sTD-DF
   Ed Valeev, F. Pavosevic, A. Kumar             : LibInt (2-el integral package), F12 methods
   Garnet Chan, S. Sharma, J. Yang, R. Olivares  : DMRG
   Ulf Ekstrom                                   : XCFun DFT Library
   Mihaly Kallay                                 : mrcc  (arbitrary order and MRCC methods)
   Jiri Pittner, Ondrej Demel                    : Mk-CCSD
   Frank Weinhold                                : gennbo (NPA and NBO analysis)
   Christopher J. Cramer and Donald G. Truhlar   : smd solvation model
   Lars Goerigk                                  : TD-DFT with DH, B97 family of functionals
   V. Asgeirsson, H. Jonsson                     : NEB implementation
   FAccTs GmbH                                   : IRC, NEB, NEB-TS, DLPNO-Multilevel, CI-OPT
                                                   MM, QMMM, 2- and 3-layer-ONIOM, Crystal-QMMM,
                                                   LR-CPCM, SF, NACMEs, symmetry and pop. for TD-DFT,
                                                   nearIR, NL-DFT gradient (VV10), updates on ESD,
                                                   ML-optimized integration grids
   S Lehtola, MJT Oliveira, MAL Marques          : LibXC Library
   Liviu Ungur et al                             : ANISO software


 Your calculation uses the libint2 library for the computation of 2-el integrals
 For citations please refer to: http://libint.valeyev.net

 Your ORCA version has been built with support for libXC version: 5.1.0
 For citations please refer to: https://tddft.org/programs/libxc/

 This ORCA versions uses:
   CBLAS   interface :  Fast vector & matrix operations
   LAPACKE interface :  Fast linear algebra routines
   SCALAPACK package :  Parallel linear algebra routines
   Shared memory     :  Shared parallel matrices
   BLAS/LAPACK       :  OpenBLAS 0.3.15  USE64BITINT DYNAMIC_ARCH NO_AFFINITY Haswell SINGLE_THREADED
        Core in use  :  Haswell
   Copyright (c) 2011-2014, The OpenBLAS Project


================================================================================

cite the ECPs for Os [Def2-ECP] as follows:
Ce-Yb(ecp-28): M. Dolg, H. Stoll, H.Preuss, J. Chem. Phys., 1989, 90, 1730-1734.
Y-Cd(ecp-28), Hf-Hg(ecp-46): D. Andrae,U. Haeussermann, M. Dolg, H. Stoll, H. Preuss, Theor. Chim. Acta, 1990, 77, 123-141.
In-Sb(ecp-28), Tl-Bi(ecp-46): B. Metz, H. Stoll, M. Dolg, J. Chem. Phys., 2000, 113, 2563-2569.
Te-Xe(ecp-28), Po-Rn(ecp-46): K. A. Peterson, D. Figgen, E. Goll, H. Stoll, M. Dolg, J. Chem. Phys., 2003, 119, 11113-11123.
Rb(ecp-28), Cs(ecp-46): T. Leininger, A. Nicklass, W. Kuechle, H. Stoll, M. Dolg, A. Bergner, Chem. Phys. Lett., 1996, 255, 274-280.
Sr(ecp-28), Ba(ecp-46): M. Kaupp, P. V. Schleyer, H. Stoll and H. Preuss, J. Chem. Phys., 1991, 94, 1360-1366.
La(ecp-46): M. Dolg, H. Stoll, A. Savin, H. Preuss, Theor. Chim. Acta, 1989, 75, 173-194.
Lu(ecp-28): X. Cao, M. Dolg, J. Chem. Phys., 2001, 115, 7348-7355.

ECP parameters for Os [Def2-ECP] have been obtained from:
TURBOMOLE (7.0.2)

----- Orbital basis set information -----
Your calculation utilizes the basis: def2-SVP
   F. Weigend and R. Ahlrichs, Phys. Chem. Chem. Phys. 7, 3297 (2005).

----- AuxJ basis set information -----
Your calculation utilizes the auxiliary basis: def2/J
   F. Weigend, Phys. Chem. Chem. Phys. 8, 1057 (2006).

================================================================================
                                        WARNINGS
                       Please study these warnings very carefully!
================================================================================

Using LibXC functional ID 497 : Re-regularized SCAN exchange by Furness et al
[ 1]  J. W. Furness, A. D. Kaplan, J. Ning, J. P. Perdew, and J. Sun, J. Phys. Chem. Lett. 11, 8208 (2020)
[ 2]  J. W. Furness, A. D. Kaplan, J. Ning, J. P. Perdew, and J. Sun, J. Phys. Chem. Lett. 11, 9248 (2020)
Using LibXC functional ID 498 : Re-regularized SCAN correlation by Furness et al
[ 1]  J. W. Furness, A. D. Kaplan, J. Ning, J. P. Perdew, and J. Sun, J. Phys. Chem. Lett. 11, 8208 (2020)
[ 2]  J. W. Furness, A. D. Kaplan, J. Ning, J. P. Perdew, and J. Sun, J. Phys. Chem. Lett. 11, 9248 (2020)
Using LibXC functional ID 497 : Re-regularized SCAN exchange by Furness et al
[ 1]  J. W. Furness, A. D. Kaplan, J. Ning, J. P. Perdew, and J. Sun, J. Phys. Chem. Lett. 11, 8208 (2020)
[ 2]  J. W. Furness, A. D. Kaplan, J. Ning, J. P. Perdew, and J. Sun, J. Phys. Chem. Lett. 11, 9248 (2020)
Using LibXC functional ID 498 : Re-regularized SCAN correlation by Furness et al
[ 1]  J. W. Furness, A. D. Kaplan, J. Ning, J. P. Perdew, and J. Sun, J. Phys. Chem. Lett. 11, 8208 (2020)
[ 2]  J. W. Furness, A. D. Kaplan, J. Ning, J. P. Perdew, and J. Sun, J. Phys. Chem. Lett. 11, 9248 (2020)
INFO   : Checking CIS options ...

WARNING: CIS/ROCIS methods need fully converged wavefunctions
  ===> : Setting SCFConvForced true
         You can overwrite this default with %scf ConvForced false 


INFO   : the flag for use of the SHARK integral package has been found!

================================================================================
                                       INPUT FILE
================================================================================
NAME = 69_vertical_r2scan/69_vertical_r2scan.inp
|  1> !r2scan CPCM(Acetonitrile)
|  2> %TDDFT
|  3>    NROOTS   30 end
|  4> %maxcore 2000
|  5> %pal nprocs 28
|  6> end
|  7> *xyz 2 1
|  8> C       -1.561344248     -2.270815249     -0.089082421
|  9> C       -2.057386066     -3.500097029      0.304901994
| 10> C       -1.505151883     -4.126955110      1.417699714
| 11> C       -0.474574685     -3.498409795      2.099149147
| 12> H       -3.994836061      2.904772419     -0.277945043
| 13> H       -4.370862719      3.276482806      2.143730254
| 14> H       -2.723241059      2.325912023      3.783769903
| 15> H       -0.771824708      1.055718391      2.921491434
| 16> H        1.000827836      2.944876804     -1.319627948
| 17> H        4.200342829      4.608606703      1.022349866
| 18> H        4.082720987      2.607846394      2.479237963
| 19> H        3.822026314      0.802234639      3.683618596
| 20> H        3.203043925     -2.060625498     -4.613947210
| 21> H        2.904506020     -1.526382220     -0.357473515
| 22> C       -0.006071683     -2.261449827      1.667747264
| 23> C       -2.188152240      1.783931640      0.019164733
| 24> C       -3.296213313      2.507161859      0.449404582
| 25> C       -3.507034217      2.715142708      1.803833168
| 26> C       -2.596237359      2.189901670      2.715251103
| 27> C       -1.507055016      1.480214243      2.243767793
| 28> C        1.699518244      2.906068930     -0.488919674
| 29> C        2.606882667      3.924563469     -0.261670249
| 30> C        3.478690385      3.824687765      0.818086718
| 31> C        3.412324689      2.705016288      1.632778969
| 32> C        2.483574856      1.703593524      1.366977157
| 33> C        2.338286630      0.482713386      2.165750221
| 34> C        3.067415075      0.130643059      3.290500055
| 35> C        2.807420510     -1.078688286      3.956539351
| 36> C        1.791607340     -1.903024535      3.444458364
| 37> C        1.075462327     -1.518298470      2.321721270
| 38> H        1.134473985     -0.718557166     -4.858442643
| 39> C       -1.888555552      1.497392525     -1.387433646
| 40> C       -2.614735550      1.906536458     -2.494990261
| 41> C       -2.194258704      1.556969612     -3.789066385
| 42> C        0.908606264     -0.401464886     -2.746313369
| 43> C       -1.025049706      0.788377891     -3.913012951
| 44> C       -0.318858996      0.399676962     -2.785344702
| 45> C        1.546041053     -0.909778278     -3.873840863
| 46> C        2.703071690     -1.661221895     -3.737833245
| 47> C        3.209134639     -1.893884444     -2.462819626
| 48> C        2.543694773     -1.369492146     -1.369781950
| 49> H       -1.963129091     -1.746924529     -0.951508609
| 50> H       -1.872848437     -5.092276595      1.749430969
| 51> H       -0.031304942     -3.970659720      2.968609559
| 52> H       -3.494865094      2.527204447     -2.371262554
| 53> H       -0.696035606      0.475933258     -4.897471213
| 54> N       -1.288993698      1.271869334      0.929139978
| 55> N        1.623261359      1.812415802      0.296812273
| 56> H        4.111456291     -2.476162787     -2.310932055
| 57> H       -2.865365700     -3.955591000     -0.257254098
| 58> N        1.355510495     -0.338588668      1.698967427
| 59> N        1.417199280     -0.637139001     -1.488133217
| 60> H        2.624775362      4.782472094     -0.925018018
| 61> H        1.592965980     -2.858060361      3.917175531
| 62> N       -0.755243030      0.756562224     -1.544350408
| 63> N       -0.557861551     -1.649273874      0.563749470
| 64> Os       0.299200147      0.202336723      0.075601257
| 65> C        3.569800890     -1.467390843      5.147957877
| 66> C        2.959595491     -2.188110280      6.184734367
| 67> C        4.924357332     -1.126632041      5.276539879
| 68> C        3.672160331     -2.554470931      7.315060639
| 69> C        5.650154226     -1.496336811      6.397525981
| 70> C        5.018087636     -2.208414307      7.414561104
| 71> H        1.901837611     -2.431017079      6.135273435
| 72> H        5.437013427     -0.603185774      4.474348616
| 73> H        3.187619934     -3.095352553      8.120482423
| 74> H        6.702019615     -1.245393590      6.480079228
| 75> C       -2.950325084      1.982468248     -4.971924048
| 76> C       -2.289640113      2.307310589     -6.165765647
| 77> C       -4.349166134      2.075151684     -4.933522946
| 78> C       -2.997627305      2.718250733     -7.283808551
| 79> C       -5.068883812      2.473571780     -6.048695421
| 80> C       -4.387127288      2.797173994     -7.219853741
| 81> H       -1.204481941      2.284538054     -6.215679143
| 82> H       -4.892820040      1.790895376     -4.036760927
| 83> H       -2.478078011      2.987048032     -8.196982261
| 84> H       -6.151704933      2.523909551     -6.016715522
| 85> Br       5.998573389     -2.711265436      8.952105459
| 86> Br      -5.360657793      3.352647521     -8.743952176
| 87> endd                         ****END OF INPUT****
================================================================================

                       ****************************
                       * Single Point Calculation *
                       ****************************

---------------------------------
CARTESIAN COORDINATES (ANGSTROEM)
---------------------------------
  C     -1.561344   -2.270815   -0.089082
  C     -2.057386   -3.500097    0.304902
  C     -1.505152   -4.126955    1.417700
  C     -0.474575   -3.498410    2.099149
  H     -3.994836    2.904772   -0.277945
  H     -4.370863    3.276483    2.143730
  H     -2.723241    2.325912    3.783770
  H     -0.771825    1.055718    2.921491
  H      1.000828    2.944877   -1.319628
  H      4.200343    4.608607    1.022350
  H      4.082721    2.607846    2.479238
  H      3.822026    0.802235    3.683619
  H      3.203044   -2.060625   -4.613947
  H      2.904506   -1.526382   -0.357474
  C     -0.006072   -2.261450    1.667747
  C     -2.188152    1.783932    0.019165
  C     -3.296213    2.507162    0.449405
  C     -3.507034    2.715143    1.803833
  C     -2.596237    2.189902    2.715251
  C     -1.507055    1.480214    2.243768
  C      1.699518    2.906069   -0.488920
  C      2.606883    3.924563   -0.261670
  C      3.478690    3.824688    0.818087
  C      3.412325    2.705016    1.632779
  C      2.483575    1.703594    1.366977
  C      2.338287    0.482713    2.165750
  C      3.067415    0.130643    3.290500
  C      2.807421   -1.078688    3.956539
  C      1.791607   -1.903025    3.444458
  C      1.075462   -1.518298    2.321721
  H      1.134474   -0.718557   -4.858443
  C     -1.888556    1.497393   -1.387434
  C     -2.614736    1.906536   -2.494990
  C     -2.194259    1.556970   -3.789066
  C      0.908606   -0.401465   -2.746313
  C     -1.025050    0.788378   -3.913013
  C     -0.318859    0.399677   -2.785345
  C      1.546041   -0.909778   -3.873841
  C      2.703072   -1.661222   -3.737833
  C      3.209135   -1.893884   -2.462820
  C      2.543695   -1.369492   -1.369782
  H     -1.963129   -1.746925   -0.951509
  H     -1.872848   -5.092277    1.749431
  H     -0.031305   -3.970660    2.968610
  H     -3.494865    2.527204   -2.371263
  H     -0.696036    0.475933   -4.897471
  N     -1.288994    1.271869    0.929140
  N      1.623261    1.812416    0.296812
  H      4.111456   -2.476163   -2.310932
  H     -2.865366   -3.955591   -0.257254
  N      1.355510   -0.338589    1.698967
  N      1.417199   -0.637139   -1.488133
  H      2.624775    4.782472   -0.925018
  H      1.592966   -2.858060    3.917176
  N     -0.755243    0.756562   -1.544350
  N     -0.557862   -1.649274    0.563749
  Os     0.299200    0.202337    0.075601
  C      3.569801   -1.467391    5.147958
  C      2.959595   -2.188110    6.184734
  C      4.924357   -1.126632    5.276540
  C      3.672160   -2.554471    7.315061
  C      5.650154   -1.496337    6.397526
  C      5.018088   -2.208414    7.414561
  H      1.901838   -2.431017    6.135273
  H      5.437013   -0.603186    4.474349
  H      3.187620   -3.095353    8.120482
  H      6.702020   -1.245394    6.480079
  C     -2.950325    1.982468   -4.971924
  C     -2.289640    2.307311   -6.165766
  C     -4.349166    2.075152   -4.933523
  C     -2.997627    2.718251   -7.283809
  C     -5.068884    2.473572   -6.048695
  C     -4.387127    2.797174   -7.219854
  H     -1.204482    2.284538   -6.215679
  H     -4.892820    1.790895   -4.036761
  H     -2.478078    2.987048   -8.196982
  H     -6.151705    2.523910   -6.016716
  Br     5.998573   -2.711265    8.952105
  Br    -5.360658    3.352648   -8.743952

----------------------------
CARTESIAN COORDINATES (A.U.)
----------------------------
  NO LB      ZA    FRAG     MASS         X           Y           Z
   0 C     6.0000    0    12.011   -2.950513   -4.291219   -0.168341
   1 C     6.0000    0    12.011   -3.887896   -6.614225    0.576181
   2 C     6.0000    0    12.011   -2.844325   -7.798815    2.679064
   3 C     6.0000    0    12.011   -0.896816   -6.611036    3.966817
   4 H     1.0000    0     1.008   -7.549146    5.489224   -0.525240
   5 H     1.0000    0     1.008   -8.259734    6.191655    4.051063
   6 H     1.0000    0     1.008   -5.146180    4.395337    7.150289
   7 H     1.0000    0     1.008   -1.458537    1.995019    5.520819
   8 H     1.0000    0     1.008    1.891291    5.565011   -2.493735
   9 H     1.0000    0     1.008    7.937498    8.709005    1.931961
  10 H     1.0000    0     1.008    7.715225    4.928115    4.685081
  11 H     1.0000    0     1.008    7.222583    1.516004    6.961030
  12 H     1.0000    0     1.008    6.052876   -3.894018   -8.719097
  13 H     1.0000    0     1.008    5.488721   -2.884444   -0.675527
  14 C     6.0000    0    12.011   -0.011474   -4.273521    3.151586
  15 C     6.0000    0    12.011   -4.135008    3.371142    0.036216
  16 C     6.0000    0    12.011   -6.228940    4.737849    0.849252
  17 C     6.0000    0    12.011   -6.627334    5.130876    3.408751
  18 C     6.0000    0    12.011   -4.906178    4.138314    5.131081
  19 C     6.0000    0    12.011   -2.847921    2.797200    4.240107
  20 C     6.0000    0    12.011    3.211624    5.491674   -0.923924
  21 C     6.0000    0    12.011    4.926294    7.416350   -0.494485
  22 C     6.0000    0    12.011    6.573772    7.227612    1.545960
  23 C     6.0000    0    12.011    6.448359    5.111740    3.085505
  24 C     6.0000    0    12.011    4.693276    3.219325    2.583212
  25 C     6.0000    0    12.011    4.418721    0.912196    4.092675
  26 C     6.0000    0    12.011    5.796574    0.246880    6.218144
  27 C     6.0000    0    12.011    5.305256   -2.038425    7.476776
  28 C     6.0000    0    12.011    3.385647   -3.596195    6.509083
  29 C     6.0000    0    12.011    2.032329   -2.869168    4.387417
  30 H     1.0000    0     1.008    2.143845   -1.357876   -9.181126
  31 C     6.0000    0    12.011   -3.568853    2.829662   -2.621870
  32 C     6.0000    0    12.011   -4.941134    3.602832   -4.714848
  33 C     6.0000    0    12.011   -4.146548    2.942246   -7.160298
  34 C     6.0000    0    12.011    1.717017   -0.758659   -5.189780
  35 C     6.0000    0    12.011   -1.937063    1.489818   -7.394523
  36 C     6.0000    0    12.011   -0.602556    0.755280   -5.263539
  37 C     6.0000    0    12.011    2.921594   -1.719232   -7.320498
  38 C     6.0000    0    12.011    5.108065   -3.139254   -7.063481
  39 C     6.0000    0    12.011    6.064386   -3.578923   -4.654055
  40 C     6.0000    0    12.011    4.806886   -2.587965   -2.588513
  41 H     1.0000    0     1.008   -3.709776   -3.301209   -1.798091
  42 H     1.0000    0     1.008   -3.539171   -9.623008    3.305945
  43 H     1.0000    0     1.008   -0.059158   -7.503459    5.609859
  44 H     1.0000    0     1.008   -6.604338    4.775724   -4.481037
  45 H     1.0000    0     1.008   -1.315317    0.899384   -9.254879
  46 N     7.0000    0    14.007   -2.435845    2.403485    1.755820
  47 N     7.0000    0    14.007    3.067519    3.424970    0.560894
  48 H     1.0000    0     1.008    7.769526   -4.679270   -4.367029
  49 H     1.0000    0     1.008   -5.414756   -7.474984   -0.486140
  50 N     7.0000    0    14.007    2.561544   -0.639840    3.210583
  51 N     7.0000    0    14.007    2.678119   -1.204018   -2.812164
  52 H     1.0000    0     1.008    4.960107    9.037563   -1.748031
  53 H     1.0000    0     1.008    3.010269   -5.400951    7.402389
  54 N     7.0000    0    14.007   -1.427202    1.429695   -2.918399
  55 N     7.0000    0    14.007   -1.054206   -3.116676    1.065332
  56 Os   16.0000*   0   190.200    0.565406    0.382361    0.142866
  57 C     6.0000    0    12.011    6.745946   -2.772967    9.728231
  58 C     6.0000    0    12.011    5.592825   -4.134929   11.687454
  59 C     6.0000    0    12.011    9.305687   -2.129026    9.971215
  60 C     6.0000    0    12.011    6.939377   -4.827250   13.823461
  61 C     6.0000    0    12.011   10.677244   -2.827667   12.089572
  62 C     6.0000    0    12.011    9.482811   -4.173298   14.011490
  63 H     1.0000    0     1.008    3.593952   -4.593957   11.593987
  64 H     1.0000    0     1.008   10.274466   -1.139856    8.455294
  65 H     1.0000    0     1.008    6.023729   -5.849369   15.345488
  66 H     1.0000    0     1.008   12.664982   -2.353453   12.245575
  67 C     6.0000    0    12.011   -5.575306    3.746322   -9.395575
  68 C     6.0000    0    12.011   -4.326793    4.360185  -11.651608
  69 C     6.0000    0    12.011   -8.218733    3.921468   -9.323007
  70 C     6.0000    0    12.011   -5.664695    5.136749  -13.764403
  71 C     6.0000    0    12.011   -9.578802    4.674373  -11.430378
  72 C     6.0000    0    12.011   -8.290469    5.285893  -13.643546
  73 H     1.0000    0     1.008   -2.276141    4.317151  -11.745931
  74 H     1.0000    0     1.008   -9.246090    3.384302   -7.628373
  75 H     1.0000    0     1.008   -4.682889    5.644703  -15.490052
  76 H     1.0000    0     1.008  -11.625038    4.769498  -11.369945
  77 Br   35.0000    0    79.900   11.335661   -5.123549   16.917028
  78 Br   35.0000    0    79.900  -10.130175    6.335586  -16.523675
* core charge reduced due to ECP

--------------------------------
INTERNAL COORDINATES (ANGSTROEM)
--------------------------------
 C      0   0   0     0.000000000000     0.00000000     0.00000000
 C      1   0   0     1.382900899959     0.00000000     0.00000000
 C      2   1   0     1.391485685239   119.07377033     0.00000000
 C      3   2   1     1.386193314001   118.94203481     0.08311137
 H      1   2   3     5.722259973392   131.36506216   244.58681292
 H      5   1   2     2.478724652605    99.66588880    65.19349293
 H      6   5   1     2.511567637609   118.79586960    33.09706861
 H      7   6   5     2.482930082750   118.84399741     0.24243280
 H      8   7   6     4.969739446242   112.47227984    36.39536581
 H      9   8   7     4.299971331128    87.00127760   103.64602072
 H     10   9   8     2.477781192714    88.42383213    34.05048751
 H     11  10   9     2.186030244866   175.25075030   347.61017066
 H      9   8   7     6.384148212406   105.38826072   212.67065506
 H     13   9   8     4.300245234523    50.79345781   331.17110043
 C      4   3   2     1.391284517981   120.07002966   359.91040594
 C      5   1   2     2.146780077215    33.41660552   147.84973457
 C      5   1   2     1.084068899302    51.10152083   102.75477669
 C      6   5   1     1.084819070427    59.70147221    33.27493660
 C      7   6   5     1.084601854088    58.73260628     0.17778774
 C      8   7   6     1.086310115822    58.99086342   359.87141321
 C      9   8   7     1.086163235342    64.09907499   120.76556579
 C     21   9   8     1.382853435206   121.42951627   218.39836500
 C     10   9   8     1.084912247565    28.71074526    34.12274658
 C     11  10   9     1.084142985586    59.86144267     0.03999293
 C     24  11  10     1.391428908647   119.82729401   180.08319219
 C     25  24  11     1.466183954267   124.15034129   359.74775730
 C     12  11  24     1.083981346532   113.26318687     2.99349943
 C     27  12  11     1.404880001867   119.35508238   179.19853136
 C     28  27  12     1.404860699503   117.78183752   177.88642569
 C     29  28  27     1.386151653672   120.39431609   359.73663228
 H     13   9   8     2.477883577004    48.56952824   103.43156054
 C     16   5   1     1.466418030335    98.11763316    77.92029961
 C     32  16   5     1.386152157173   126.99273000     1.17771060
 C     33  32  16     1.404859698529   120.38202593   179.62100315
 C     31  13   9     2.147708968066    94.05556883   325.01011173
 C     34  33  32     1.404687034829   117.81095976   359.95427583
 C     36  34  33     1.386156344320   120.37816380   359.79510928
 C     31  13   9     1.084155722355    59.86416354   325.06948756
 C     13   9   8     1.084929100692    30.19681833     3.12077650
 C     39  13   9     1.391363108140   120.71913926   238.60968300
 C     14  13   9     1.086079011331    28.16659844    33.74187674
 H      1   2   3     1.086126823311   121.48630443   179.99736062
 H      3   2   1     1.084938685258   120.72030704   180.08599926
 H      4   3   2     1.084190695753   120.04568566   179.99197908
 H     33  32  16     1.084050419616   120.20759771     1.63950125
 H     36  34  33     1.083988005611   119.37268112   177.94029930
 N     20   8   7     1.348778940926   115.99519341   180.02814460
 N     21   9   8     1.348802049758   115.98495774    38.35057650
 H     40  39  13     1.084574693887   121.37961642     0.05004248
 H      2   1   3     1.084585320917   119.52932683   180.04453463
 N     30  29  28     1.363071730433   120.27303617     0.36387931
 N     41  14  13     1.348829213482   115.95535675   180.03922159
 H     22  21   9     1.084600212069   119.53103392     0.00000000
 H     29  28  27     1.083980322157   119.37474579   177.85179209
 N     32  16   5     1.363029595276   112.73712188   180.53857034
 N      1   2   3     1.348881270506   122.58566856     0.00000000
 Os    55  32  16     2.010785845488   119.54295580   359.51288498
 C     28  27  12     1.466898641939   121.12943954   357.96006384
 C     58  28  27     1.402388186650   120.69683979   145.89887525
 C     58  28  27     1.402666406150   120.79561264   325.92523930
 C     59  58  28     1.385498559717   121.01395259   180.23306023
 C     60  58  28     1.385666839171   121.00855512   180.27032282
 C     62  60  58     1.393170117365   119.29492078   359.50327457
 H     59  58  28     1.086416968524   120.32395605   357.42601418
 H     60  58  28     1.086426752529   120.33468720   357.54207002
 H     61  59  58     1.084452200645   120.53101925   178.83142784
 H     62  60  58     1.084531389740   120.52117676   178.80643163
 C     34  33  32     1.466914350302   121.08645405   180.04754764
 C     68  34  33     1.402599351531   120.71309863   145.07776387
 C     68  34  33     1.402434008112   120.74262231   325.16456535
 C     69  68  34     1.385690297711   120.98241724   180.42452979
 C     70  68  34     1.385763961835   120.99748362   180.14918501
 C     71  69  68     1.393208276463   119.29649043   359.43519746
 H     69  68  34     1.086544156347   120.31070898   357.59487799
 H     70  68  34     1.086528111402   120.29064115   357.36858049
 H     71  69  68     1.084467464464   120.53968101   178.74823562
 H     72  70  68     1.084462164030   120.54359323   178.78914423
 Br    63  62  60     1.891627398132   119.60898375   180.25801479
 Br    73  71  69     1.891874341211   119.52920759   180.17571575

---------------------------
INTERNAL COORDINATES (A.U.)
---------------------------
 C      0   0   0     0.000000000000     0.00000000     0.00000000
 C      1   0   0     2.613303971276     0.00000000     0.00000000
 C      2   1   0     2.629526864374   119.07377033     0.00000000
 C      3   2   1     2.619525732135   118.94203481     0.08311137
 H      1   2   3    10.813504216810   131.36506216   244.58681292
 H      5   1   2     4.684110754822    99.66588880    65.19349293
 H      6   5   1     4.746175001901   118.79586960    33.09706861
 H      7   6   5     4.692057866072   118.84399741     0.24243280
 H      8   7   6     9.391446510343   112.47227984    36.39536581
 H      9   8   7     8.125768199546    87.00127760   103.64602072
 H     10   9   8     4.682327874010    88.42383213    34.05048751
 H     11  10   9     4.130998483266   175.25075030   347.61017066
 H      9   8   7    12.064291719810   105.38826072   212.67065506
 H     13   9   8     8.126285801948    50.79345781   331.17110043
 C      4   3   2     2.629146713349   120.07002966   359.91040594
 C      5   1   2     4.056826415695    33.41660552   147.84973457
 C      5   1   2     2.048593329983    51.10152083   102.75477669
 C      6   5   1     2.050010947962    59.70147221    33.27493660
 C      7   6   5     2.049600468569    58.73260628     0.17778774
 C      8   7   6     2.052828615412    58.99086342   359.87141321
 C      9   8   7     2.052551051529    64.09907499   120.76556579
 C     21   9   8     2.613214275892   121.42951627   218.39836500
 C     10   9   8     2.050187027235    28.71074526    34.12274658
 C     11  10   9     2.048733332769    59.86144267     0.03999293
 C     24  11  10     2.629419572163   119.82729401   180.08319219
 C     25  24  11     2.770686135514   124.15034129   359.74775730
 C     12  11  24     2.048427879225   113.26318687     2.99349943
 C     27  12  11     2.654838454551   119.35508238   179.19853136
 C     28  27  12     2.654801978369   117.78183752   177.88642569
 C     29  28  27     2.619447005523   120.39431609   359.73663228
 H     13   9   8     4.682521352279    48.56952824   103.43156054
 C     16   5   1     2.771128475177    98.11763316    77.92029961
 C     32  16   5     2.619447957002   126.99273000     1.17771060
 C     33  32  16     2.654800086803   120.38202593   179.62100315
 C     31  13   9     4.058581765012    94.05556883   325.01011173
 C     34  33  32     2.654473799697   117.81095976   359.95427583
 C     36  34  33     2.619455869562   120.37816380   359.79510928
 C     31  13   9     2.048757401775    59.86416354   325.06948756
 C     13   9   8     2.050218875029    30.19681833     3.12077650
 C     39  13   9     2.629295227226   120.71913926   238.60968300
 C     14  13   9     2.052391891215    28.16659844    33.74187674
 H      1   2   3     2.052482242763   121.48630443   179.99736062
 H      3   2   1     2.050236987235   120.72030704   180.08599926
 H      4   3   2     2.048823491918   120.04568566   179.99197908
 H     33  32  16     2.048558408437   120.20759771     1.63950125
 H     36  34  33     2.048440463061   119.37268112   177.94029930
 N     20   8   7     2.548822813551   115.99519341   180.02814460
 N     21   9   8     2.548866482914   115.98495774    38.35057650
 H     40  39  13     2.049549143227   121.37961642     0.05004248
 H      2   1   3     2.049569225404   119.52932683   180.04453463
 N     30  29  28     2.575832271409   120.27303617     0.36387931
 N     41  14  13     2.548917814912   115.95535675   180.03922159
 H     22  21   9     2.049597365604   119.53103392     0.00000000
 H     29  28  27     2.048425943436   119.37474579   177.85179209
 N     32  16   5     2.575752647501   112.73712188   180.53857034
 N      1   2   3     2.549016188432   122.58566856     0.00000000
 Os    55  32  16     3.799834561939   119.54295580   359.51288498
 C     28  27  12     2.772036699486   121.12943954   357.96006384
 C     58  28  27     2.650129606215   120.69683979   145.89887525
 C     58  28  27     2.650655364876   120.79561264   325.92523930
 C     59  58  28     2.618212836808   121.01395259   180.23306023
 C     60  58  28     2.618530838889   121.00855512   180.27032282
 C     62  60  58     2.632709979783   119.29492078   359.50327457
 H     59  58  28     2.053030537755   120.32395605   357.42601418
 H     60  58  28     2.053049026845   120.33468720   357.54207002
 H     61  59  58     2.049317664547   120.53101925   178.83142784
 H     62  60  58     2.049467310250   120.52117676   178.80643163
 C     34  33  32     2.772066383990   121.08645405   180.04754764
 C     68  34  33     2.650528650009   120.71309863   145.07776387
 C     68  34  33     2.650216196229   120.74262231   325.16456535
 C     69  68  34     2.618575169106   120.98241724   180.42452979
 C     70  68  34     2.618714374125   120.99748362   180.14918501
 C     71  69  68     2.632782090028   119.29649043   359.43519746
 H     69  68  34     2.053270887908   120.31070898   357.59487799
 H     70  68  34     2.053240567357   120.29064115   357.36858049
 H     71  69  68     2.049346508985   120.53968101   178.74823562
 H     72  70  68     2.049336492617   120.54359323   178.78914423
 Br    63  62  60     3.574657729892   119.60898375   180.25801479
 Br    73  71  69     3.575124384682   119.52920759   180.17571575

---------------------
BASIS SET INFORMATION
---------------------
There are 5 groups of distinct atoms

 Group   1 Type C   : 7s4p1d contracted to 3s2p1d pattern {511/31/1}
 Group   2 Type H   : 4s1p contracted to 2s1p pattern {31/1}
 Group   3 Type N   : 7s4p1d contracted to 3s2p1d pattern {511/31/1}
 Group   4 Type Os  : 7s6p5d1f contracted to 6s3p2d1f pattern {211111/411/41/1}
 Group   5 Type Br  : 14s10p6d contracted to 5s4p3d pattern {63311/5311/411}

Atom   0C    basis set group =>   1
Atom   1C    basis set group =>   1
Atom   2C    basis set group =>   1
Atom   3C    basis set group =>   1
Atom   4H    basis set group =>   2
Atom   5H    basis set group =>   2
Atom   6H    basis set group =>   2
Atom   7H    basis set group =>   2
Atom   8H    basis set group =>   2
Atom   9H    basis set group =>   2
Atom  10H    basis set group =>   2
Atom  11H    basis set group =>   2
Atom  12H    basis set group =>   2
Atom  13H    basis set group =>   2
Atom  14C    basis set group =>   1
Atom  15C    basis set group =>   1
Atom  16C    basis set group =>   1
Atom  17C    basis set group =>   1
Atom  18C    basis set group =>   1
Atom  19C    basis set group =>   1
Atom  20C    basis set group =>   1
Atom  21C    basis set group =>   1
Atom  22C    basis set group =>   1
Atom  23C    basis set group =>   1
Atom  24C    basis set group =>   1
Atom  25C    basis set group =>   1
Atom  26C    basis set group =>   1
Atom  27C    basis set group =>   1
Atom  28C    basis set group =>   1
Atom  29C    basis set group =>   1
Atom  30H    basis set group =>   2
Atom  31C    basis set group =>   1
Atom  32C    basis set group =>   1
Atom  33C    basis set group =>   1
Atom  34C    basis set group =>   1
Atom  35C    basis set group =>   1
Atom  36C    basis set group =>   1
Atom  37C    basis set group =>   1
Atom  38C    basis set group =>   1
Atom  39C    basis set group =>   1
Atom  40C    basis set group =>   1
Atom  41H    basis set group =>   2
Atom  42H    basis set group =>   2
Atom  43H    basis set group =>   2
Atom  44H    basis set group =>   2
Atom  45H    basis set group =>   2
Atom  46N    basis set group =>   3
Atom  47N    basis set group =>   3
Atom  48H    basis set group =>   2
Atom  49H    basis set group =>   2
Atom  50N    basis set group =>   3
Atom  51N    basis set group =>   3
Atom  52H    basis set group =>   2
Atom  53H    basis set group =>   2
Atom  54N    basis set group =>   3
Atom  55N    basis set group =>   3
Atom  56Os   basis set group =>   4
Atom  57C    basis set group =>   1
Atom  58C    basis set group =>   1
Atom  59C    basis set group =>   1
Atom  60C    basis set group =>   1
Atom  61C    basis set group =>   1
Atom  62C    basis set group =>   1
Atom  63H    basis set group =>   2
Atom  64H    basis set group =>   2
Atom  65H    basis set group =>   2
Atom  66H    basis set group =>   2
Atom  67C    basis set group =>   1
Atom  68C    basis set group =>   1
Atom  69C    basis set group =>   1
Atom  70C    basis set group =>   1
Atom  71C    basis set group =>   1
Atom  72C    basis set group =>   1
Atom  73H    basis set group =>   2
Atom  74H    basis set group =>   2
Atom  75H    basis set group =>   2
Atom  76H    basis set group =>   2
Atom  77Br   basis set group =>   5
Atom  78Br   basis set group =>   5
---------------------------------
AUXILIARY/J BASIS SET INFORMATION
---------------------------------
There are 5 groups of distinct atoms

 Group   1 Type C   : 12s5p4d2f1g contracted to 6s4p3d1f1g pattern {711111/2111/211/2/1}
 Group   2 Type H   : 5s2p1d contracted to 3s1p1d pattern {311/2/1}
 Group   3 Type N   : 12s5p4d2f1g contracted to 6s4p3d1f1g pattern {711111/2111/211/2/1}
 Group   4 Type Os  : 11s5p5d3f3g contracted to 8s5p5d2f3g pattern {41111111/11111/11111/21/111}
 Group   5 Type Br  : 19s5p5d3f1g contracted to 8s4p3d2f1g pattern {121111111/2111/311/21/1}

Atom   0C    basis set group =>   1
Atom   1C    basis set group =>   1
Atom   2C    basis set group =>   1
Atom   3C    basis set group =>   1
Atom   4H    basis set group =>   2
Atom   5H    basis set group =>   2
Atom   6H    basis set group =>   2
Atom   7H    basis set group =>   2
Atom   8H    basis set group =>   2
Atom   9H    basis set group =>   2
Atom  10H    basis set group =>   2
Atom  11H    basis set group =>   2
Atom  12H    basis set group =>   2
Atom  13H    basis set group =>   2
Atom  14C    basis set group =>   1
Atom  15C    basis set group =>   1
Atom  16C    basis set group =>   1
Atom  17C    basis set group =>   1
Atom  18C    basis set group =>   1
Atom  19C    basis set group =>   1
Atom  20C    basis set group =>   1
Atom  21C    basis set group =>   1
Atom  22C    basis set group =>   1
Atom  23C    basis set group =>   1
Atom  24C    basis set group =>   1
Atom  25C    basis set group =>   1
Atom  26C    basis set group =>   1
Atom  27C    basis set group =>   1
Atom  28C    basis set group =>   1
Atom  29C    basis set group =>   1
Atom  30H    basis set group =>   2
Atom  31C    basis set group =>   1
Atom  32C    basis set group =>   1
Atom  33C    basis set group =>   1
Atom  34C    basis set group =>   1
Atom  35C    basis set group =>   1
Atom  36C    basis set group =>   1
Atom  37C    basis set group =>   1
Atom  38C    basis set group =>   1
Atom  39C    basis set group =>   1
Atom  40C    basis set group =>   1
Atom  41H    basis set group =>   2
Atom  42H    basis set group =>   2
Atom  43H    basis set group =>   2
Atom  44H    basis set group =>   2
Atom  45H    basis set group =>   2
Atom  46N    basis set group =>   3
Atom  47N    basis set group =>   3
Atom  48H    basis set group =>   2
Atom  49H    basis set group =>   2
Atom  50N    basis set group =>   3
Atom  51N    basis set group =>   3
Atom  52H    basis set group =>   2
Atom  53H    basis set group =>   2
Atom  54N    basis set group =>   3
Atom  55N    basis set group =>   3
Atom  56Os   basis set group =>   4
Atom  57C    basis set group =>   1
Atom  58C    basis set group =>   1
Atom  59C    basis set group =>   1
Atom  60C    basis set group =>   1
Atom  61C    basis set group =>   1
Atom  62C    basis set group =>   1
Atom  63H    basis set group =>   2
Atom  64H    basis set group =>   2
Atom  65H    basis set group =>   2
Atom  66H    basis set group =>   2
Atom  67C    basis set group =>   1
Atom  68C    basis set group =>   1
Atom  69C    basis set group =>   1
Atom  70C    basis set group =>   1
Atom  71C    basis set group =>   1
Atom  72C    basis set group =>   1
Atom  73H    basis set group =>   2
Atom  74H    basis set group =>   2
Atom  75H    basis set group =>   2
Atom  76H    basis set group =>   2
Atom  77Br   basis set group =>   5
Atom  78Br   basis set group =>   5
-------------------------
ECP PARAMETER INFORMATION
-------------------------

 Group 1, Type Os ECP Def2-ECP (replacing 60 core electrons, lmax=3)

Atom  56Os   ECP group =>   1



           ************************************************************
           *        Program running with 28 parallel MPI-processes    *
           *              working on a common directory               *
           ************************************************************
------------------------------------------------------------------------------
                           ORCA GTO INTEGRAL CALCULATION
                           -- RI-GTO INTEGRALS CHOSEN --
------------------------------------------------------------------------------
------------------------------------------------------------------------------
                   ___                                                        
                  /   \      - P O W E R E D   B Y -                         
                 /     \                                                     
                 |  |  |   _    _      __       _____    __    __             
                 |  |  |  | |  | |    /  \     |  _  \  |  |  /  |          
                  \  \/   | |  | |   /    \    | | | |  |  | /  /          
                 / \  \   | |__| |  /  /\  \   | |_| |  |  |/  /          
                |  |  |   |  __  | /  /__\  \  |    /   |      \           
                |  |  |   | |  | | |   __   |  |    \   |  |\   \          
                \     /   | |  | | |  |  |  |  | |\  \  |  | \   \       
                 \___/    |_|  |_| |__|  |__|  |_| \__\ |__|  \__/        
                                                                              
                      - O R C A' S   B I G   F R I E N D -                    
                                      &                                       
                       - I N T E G R A L  F E E D E R -                       
                                                                              
 v1 FN, 2020, v2 2021                                                         
------------------------------------------------------------------------------


Reading SHARK input file 69_vertical_r2scan/69_vertical_r2scan.SHARKINP.tmp ... ok
----------------------
SHARK INTEGRAL PACKAGE
----------------------

Number of atoms                             ...     79
Number of basis functions                   ...    908
Number of shells                            ...    408
Maximum angular momentum                    ...      3
Integral batch strategy                     ... SHARK/LIBINT Hybrid
RI-J (if used) integral strategy            ... SPLIT-RIJ (Revised 2003 algorithm where possible)
Printlevel                                  ...      1
Contraction scheme used                     ... SEGMENTED contraction
Coulomb Range Separation                    ... NOT USED
Exchange Range Separation                   ... NOT USED
Finite Nucleus Model                        ... NOT USED
Auxiliary Coulomb fitting basis             ... AVAILABLE
   # of basis functions in Aux-J            ...   2865
   # of shells in Aux-J                     ...    919
   Maximum angular momentum in Aux-J        ...      4
Auxiliary J/K fitting basis                 ... NOT available
Auxiliary Correlation fitting basis         ... NOT available
Auxiliary 'external' fitting basis          ... NOT available
Integral threshold                          ...     1.000000e-10
Primitive cut-off                           ...     1.000000e-11
Primitive pair pre-selection threshold      ...     1.000000e-11

Calculating pre-screening integrals         ... done (  0.1 sec) Dimension = 408
Organizing shell pair data                  ... done (  0.4 sec)
Shell pair information
Total number of shell pairs                 ...     83436
Shell pairs after pre-screening             ...     40994
Total number of primitive shell pairs       ...    317211
Primitive shell pairs kept                  ...     88420
          la=0 lb=0:  11951 shell pairs
          la=1 lb=0:  15125 shell pairs
          la=1 lb=1:   4919 shell pairs
          la=2 lb=0:   5057 shell pairs
          la=2 lb=1:   3195 shell pairs
          la=2 lb=2:    468 shell pairs
          la=3 lb=0:    146 shell pairs
          la=3 lb=1:     94 shell pairs
          la=3 lb=2:     38 shell pairs
          la=3 lb=3:      1 shell pairs

Calculating one electron integrals          ... done (  0.1 sec)
Calculating ECP integrals                   ... done (  3.6 sec)
Calculating RI/J V-Matrix + Cholesky decomp.... done (  0.6 sec)
Calculating Nuclear repulsion               ... done (  0.0 sec) ENN=   7666.825171023865 Eh

SHARK setup successfully completed in   5.3 seconds

Maximum memory used throughout the entire GTOINT-calculation: 72.0 MB


           ************************************************************
           *        Program running with 28 parallel MPI-processes    *
           *              working on a common directory               *
           ************************************************************
-------------------------------------------------------------------------------
                                 ORCA SCF
-------------------------------------------------------------------------------

------------
SCF SETTINGS
------------
Hamiltonian:
 Density Functional     Method          .... DFT(GTOs)
  Functional kind                       .... Exchange
  Functional name                       .... Re-regularized SCAN exchange by Furness et al
  Functional family                     .... MGGA
  Functional refs                              
    [ 0] J. W. Furness, A. D. Kaplan, J. Ning, J. P. Perdew, and J. Sun, J. Phys. Chem. Lett. 11, 8208 (2020)
    [ 1] J. W. Furness, A. D. Kaplan, J. Ning, J. P. Perdew, and J. Sun, J. Phys. Chem. Lett. 11, 9248 (2020)
  Functional external parameters         .... 8
 Parameter  0 :         c1 parameter
 Parameter  1 :         c2 parameter
 Parameter  2 :          d parameter
 Parameter  3 :         k1 parameter
 Parameter  4 :       taur parameter
 Parameter  5 :     alphar parameter
 Parameter  6 :        eta parameter
 Parameter  7 :        dp2 parameter
  Functional kind                       .... Correlation
  Functional name                       .... Re-regularized SCAN correlation by Furness et al
  Functional family                     .... MGGA
  Functional refs                              
    [ 0] J. W. Furness, A. D. Kaplan, J. Ning, J. P. Perdew, and J. Sun, J. Phys. Chem. Lett. 11, 8208 (2020)
    [ 1] J. W. Furness, A. D. Kaplan, J. Ning, J. P. Perdew, and J. Sun, J. Phys. Chem. Lett. 11, 9248 (2020)
  Functional external parameters         .... 0
 Gradients option       PostSCFGGA      .... off
   Density functional embedding theory  .... OFF
   NL short-range parameter             .... 12.300000
 RI-approximation to the Coulomb term is turned on
   Number of AuxJ basis functions       .... 2865


General Settings:
 Integral files         IntName         .... 69_vertical_r2scan/69_vertical_r2scan
 Hartree-Fock type      HFTyp           .... RHF
 Total Charge           Charge          ....    2
 Multiplicity           Mult            ....    1
 Number of Electrons    NEL             ....  406
 Basis Dimension        Dim             ....  908
 Nuclear Repulsion      ENuc            ....   7666.8251710239 Eh

Convergence Acceleration:
 DIIS                   CNVDIIS         .... on
   Start iteration      DIISMaxIt       ....    12
   Startup error        DIISStart       ....  0.200000
   # of expansion vecs  DIISMaxEq       ....     5
   Bias factor          DIISBfac        ....   1.050
   Max. coefficient     DIISMaxC        ....  10.000
 Trust-Rad. Augm. Hess. CNVTRAH         .... auto
   Auto Start mean grad. ratio tolernc. ....  1.125000
   Auto Start start iteration           ....    20
   Auto Start num. interpolation iter.  ....    10
   Max. Number of Micro iterations      ....    16
   Max. Number of Macro iterations      .... Maxiter - #DIIS iter
   Number of Davidson start vectors     ....     2
   Converg. threshold I  (grad. norm)   ....   5.000e-05
   Converg. threshold II (energy diff.) ....   1.000e-06
   Grad. Scal. Fac. for Micro threshold ....   0.100
   Minimum threshold for Micro iter.    ....   0.010
   NR start threshold (gradient norm)   ....   0.001
   Initial trust radius                 ....   0.400
   Minimum AH scaling param. (alpha)    ....   1.000
   Maximum AH scaling param. (alpha)    .... 1000.000
   Orbital update algorithm             .... Taylor
   White noise on init. David. guess    .... on
   Maximum white noise                  ....   0.010
   Quad. conv. algorithm                .... NR
 SOSCF                  CNVSOSCF        .... off
 Level Shifting         CNVShift        .... on
   Level shift para.    LevelShift      ....    0.2500
   Turn off err/grad.   ShiftErr        ....    0.0010
 Zerner damping         CNVZerner       .... off
 Static damping         CNVDamp         .... on
   Fraction old density DampFac         ....    0.7000
   Max. Damping (<1)    DampMax         ....    0.9800
   Min. Damping (>=0)   DampMin         ....    0.0000
   Turn off err/grad.   DampErr         ....    0.1000
 Fernandez-Rico         CNVRico         .... off

SCF Procedure:
 Maximum # iterations   MaxIter         ....   125
 SCF integral mode      SCFMode         .... Direct
   Integral package                     .... SHARK and LIBINT hybrid scheme
 Reset frequency        DirectResetFreq ....    20
 Integral Threshold     Thresh          ....  1.000e-10 Eh
 Primitive CutOff       TCut            ....  1.000e-11 Eh

Convergence Tolerance:
 Convergence Check Mode ConvCheckMode   .... Total+1el-Energy
 Convergence forced     ConvForced      .... 1
 Energy Change          TolE            ....  1.000e-06 Eh
 1-El. energy change                    ....  1.000e-03 Eh
 DIIS Error             TolErr          ....  1.000e-06


Diagonalization of the overlap matrix:
Smallest eigenvalue                        ... 2.734e-04
Time for diagonalization                   ...    0.232 sec
Threshold for overlap eigenvalues          ... 1.000e-08
Number of eigenvalues below threshold      ... 0
Time for construction of square roots      ...    0.156 sec
Total time needed                          ...    0.393 sec

Time for model grid setup =    0.783 sec

------------------------------
INITIAL GUESS: MODEL POTENTIAL
------------------------------
Loading Hartree-Fock densities                     ... done
  calling /s/ls4/groups/g0130/lsvvt/motorca504/orcabin/orca 69_vertical_r2scan/69_vertical_r2scan_atom76.inp > 69_vertical_r2scan/69_vertical_r2scan_atom76.out in order to generate an atomic fitting density for atom 56 (Os with ECP) on-the-fly... 
    atom 56 (Os), assumed electronic state with S=5: 1s2 2s2 2p6 3s2 3p6 4s2 3d10 4p6 5s2 4d10 5p6 6s2 4f14 5d6           ... done
Calculating cut-offs                               ... done
Initializing the effective Hamiltonian             ... done
Setting up the integral package (SHARK)            ... done
Starting the Coulomb interaction                   ... done (   0.6 sec)
Reading the grid                                   ... done
Mapping shells                                     ... done
Starting the XC term evaluation                    ... done (   0.2 sec)
  promolecular density results
     # of electrons  =    467.980551787
     EX              =   -782.056435646
     EC              =    -18.984398072
     EX+EC           =   -801.040833718
Transforming the Hamiltonian                       ... done (   0.4 sec)
Diagonalizing the Hamiltonian                      ... done (   0.2 sec)
Back transforming the eigenvectors                 ... done (   0.1 sec)
Now organizing SCF variables                       ... done
                      ------------------
                      INITIAL GUESS DONE (   9.8 sec)
                      ------------------
-------------------
DFT GRID GENERATION
-------------------

General Integration Accuracy     IntAcc      ... 4.388
Radial Grid Type                 RadialGrid  ... OptM3 with GC (2021)
Angular Grid (max. ang.)         AngularGrid ... 4 (Lebedev-302)
Angular grid pruning method      GridPruning ... 4 (adaptive)
Weight generation scheme         WeightScheme... Becke
Basis function cutoff            BFCut       ... 1.0000e-10
Integration weight cutoff        WCut        ... 1.0000e-14
Angular grids for H and He will be reduced by one unit
Partially contracted basis set               ... off
Rotationally invariant grid construction     ... off

Total number of grid points                  ...   406160
Total number of batches                      ...     6385
Average number of points per batch           ...       63
Average number of grid points per atom       ...     5141
Time for grid setup =    3.128 sec


--------------------
CPCM SOLVATION MODEL
--------------------
CPCM parameters:
  Epsilon                                         ...      36.6000
  Refrac                                          ...       1.3440
  Rsolv                                           ...       1.3000
  Surface type                                    ... GAUSSIAN VDW
  Epsilon function type                           ...         CPCM
Radii:
 Radius for C  used is    3.8550 Bohr (=   2.0400 Ang.)
 Radius for H  used is    2.4944 Bohr (=   1.3200 Ang.)
 Radius for N  used is    3.5149 Bohr (=   1.8600 Ang.)
 Radius for Os used is    4.5353 Bohr (=   2.4000 Ang.)
 Radius for Br used is    4.1952 Bohr (=   2.2200 Ang.)
Calculating surface                               ...        done! (  0.0s)
GEPOL surface points                              ...         3973
GEPOL Volume                                      ...    5388.7300
GEPOL Surface-area                                ...    2503.7314
Calculating surface distance matrix               ...        done! (  0.3s)
Performing Cholesky decomposition & store         ...        done! (  1.2s)
Overall time for CPCM initialization              ...                 1.5s
--------------
SCF ITERATIONS
--------------
ITER       Energy         Delta-E        Max-DP      RMS-DP      [F,P]     Damp
               ***  Starting incremental Fock matrix formation  ***
  0  -7180.5935094921   0.000000000000 0.27627782  0.00144782  0.3766846 0.7000
  1  -7181.1881729994  -0.594663507353 0.18907776  0.00081916  0.2894816 0.7000
  2  -7181.3093905308  -0.121217531392 0.19405265  0.00056676  0.2094494 0.7000
                               ***Turning on DIIS***
  3  -7181.4405449578  -0.131154426957 0.12558397  0.00039769  0.1411021 0.7000
  4  -7181.5292191056  -0.088674147870 0.18874146  0.00060524  0.0928524 0.0000
  5  -7181.7265961463  -0.197377040693 0.02034015  0.00013291  0.0076231 0.0000
  6  -7181.7282482512  -0.001652104826 0.00552981  0.00004603  0.0044357 0.0000
  7  -7181.7285880144  -0.000339763280 0.00480815  0.00002637  0.0045985 0.0000
  8  -7181.7287289581  -0.000140943705 0.00196912  0.00001804  0.0007540 0.0000
  9  -7181.7287250732   0.000003884964 0.00067018  0.00000601  0.0011003 0.0000
 10  -7181.7287460539  -0.000020980689 0.00079754  0.00000586  0.0003139 0.0000
 11  -7181.7287459554   0.000000098486 0.00064884  0.00000280  0.0004798 0.0000
 12  -7181.7287480179  -0.000002062532 0.00005135  0.00000075  0.0000699 0.0000
 13  -7181.7287478670   0.000000150896 0.00003904  0.00000033  0.0000179 0.0000
 14  -7181.7287482395  -0.000000372443 0.00005083  0.00000027  0.0000346 0.0000
                 **** Energy Check signals convergence ****

               *****************************************************
               *                     SUCCESS                       *
               *           SCF CONVERGED AFTER  15 CYCLES          *
               *****************************************************


----------------
TOTAL SCF ENERGY
----------------

Total Energy       :        -7181.72874844 Eh         -195424.77445 eV

Components:
Nuclear Repulsion  :         7666.82517102 Eh          208624.91919 eV
Electronic Energy  :       -14848.55391946 Eh         -404049.69364 eV
One Electron Energy:       -25152.97650764 Eh         -684447.28740 eV
Two Electron Energy:        10304.42258818 Eh          280397.59376 eV
CPCM Dielectric    :           -0.21078468 Eh              -5.73574 eV

Virial components:
Potential Energy   :       -14277.53775516 Eh         -388511.55386 eV
Kinetic Energy     :         7095.80900672 Eh          193086.77942 eV
Virial Ratio       :            2.01210852


DFT components:
N(Alpha)           :      203.000006038345 electrons
N(Beta)            :      203.000006038345 electrons
N(Total)           :      406.000012076690 electrons
E(X)               :     -455.611591172651 Eh       
E(C)               :      -14.652528032726 Eh       
E(XC)              :     -470.264119205377 Eh       
DFET-embed. en.    :        0.000000000000 Eh       
CPCM Solvation Model Properties:
Surface-charge          :           -2.03099237
Charge-correction       :            0.00458842 Eh               0.12486 eV
Free-energy (cav+disp)  :  This term is not implemented in the current solvation scheme

---------------
SCF CONVERGENCE
---------------

  Last Energy change         ...   -1.9687e-07  Tolerance :   1.0000e-06
  Last MAX-Density change    ...    1.3877e-05  Tolerance :   1.0000e-05
  Last RMS-Density change    ...    1.8028e-07  Tolerance :   1.0000e-06
  Last DIIS Error            ...    5.2759e-06  Tolerance :   1.0000e-06

             **** THE GBW FILE WAS UPDATED (69_vertical_r2scan/69_vertical_r2scan.gbw) ****
             **** DENSITY 69_vertical_r2scan/69_vertical_r2scan.scfp WAS UPDATED ****
             **** ENERGY FILE WAS UPDATED (69_vertical_r2scan/69_vertical_r2scan.en.tmp) ****
             **** THE GBW FILE WAS UPDATED (69_vertical_r2scan/69_vertical_r2scan.gbw) ****
             **** DENSITY 69_vertical_r2scan/69_vertical_r2scan.scfp WAS UPDATED ****
----------------
ORBITAL ENERGIES
----------------

  NO   OCC          E(Eh)            E(eV) 
   0   2.0000    -482.172244    -13120.5738 
   1   2.0000    -482.172206    -13120.5728 
   2   2.0000     -62.282794     -1694.8010 
   3   2.0000     -62.282757     -1694.8000 
   4   2.0000     -56.078596     -1525.9762 
   5   2.0000     -56.078558     -1525.9751 
   6   2.0000     -56.076337     -1525.9147 
   7   2.0000     -56.076301     -1525.9137 
   8   2.0000     -56.076301     -1525.9137 
   9   2.0000     -56.076263     -1525.9127 
  10   2.0000     -14.258659      -387.9978 
  11   2.0000     -14.258601      -387.9963 
  12   2.0000     -14.258544      -387.9947 
  13   2.0000     -14.258504      -387.9936 
  14   2.0000     -14.255791      -387.9198 
  15   2.0000     -14.255716      -387.9177 
  16   2.0000     -10.136823      -275.8370 
  17   2.0000     -10.136794      -275.8362 
  18   2.0000     -10.136783      -275.8359 
  19   2.0000     -10.136744      -275.8348 
  20   2.0000     -10.134894      -275.7845 
  21   2.0000     -10.134832      -275.7828 
  22   2.0000     -10.134820      -275.7825 
  23   2.0000     -10.134768      -275.7811 
  24   2.0000     -10.121074      -275.4084 
  25   2.0000     -10.121033      -275.4073 
  26   2.0000     -10.121017      -275.4069 
  27   2.0000     -10.120987      -275.4060 
  28   2.0000     -10.119249      -275.3588 
  29   2.0000     -10.119185      -275.3570 
  30   2.0000     -10.102632      -274.9066 
  31   2.0000     -10.102631      -274.9066 
  32   2.0000     -10.093050      -274.6458 
  33   2.0000     -10.092991      -274.6442 
  34   2.0000     -10.092983      -274.6440 
  35   2.0000     -10.092956      -274.6433 
  36   2.0000     -10.091708      -274.6093 
  37   2.0000     -10.091698      -274.6091 
  38   2.0000     -10.091680      -274.6086 
  39   2.0000     -10.091674      -274.6084 
  40   2.0000     -10.091323      -274.5988 
  41   2.0000     -10.091312      -274.5986 
  42   2.0000     -10.091303      -274.5983 
  43   2.0000     -10.091283      -274.5978 
  44   2.0000     -10.086150      -274.4581 
  45   2.0000     -10.086140      -274.4578 
  46   2.0000     -10.086125      -274.4574 
  47   2.0000     -10.086108      -274.4570 
  48   2.0000     -10.085098      -274.4295 
  49   2.0000     -10.085077      -274.4289 
  50   2.0000     -10.075669      -274.1729 
  51   2.0000     -10.075625      -274.1717 
  52   2.0000     -10.075582      -274.1705 
  53   2.0000     -10.075516      -274.1687 
  54   2.0000     -10.075307      -274.1631 
  55   2.0000     -10.075261      -274.1618 
  56   2.0000     -10.075222      -274.1607 
  57   2.0000     -10.075154      -274.1589 
  58   2.0000      -8.640812      -235.1285 
  59   2.0000      -8.640775      -235.1274 
  60   2.0000      -6.450948      -175.5392 
  61   2.0000      -6.450910      -175.5382 
  62   2.0000      -6.437521      -175.1738 
  63   2.0000      -6.437486      -175.1729 
  64   2.0000      -6.436784      -175.1538 
  65   2.0000      -6.436743      -175.1527 
  66   2.0000      -3.428444       -93.2927 
  67   2.0000      -2.548102       -69.3374 
  68   2.0000      -2.548074       -69.3366 
  69   2.0000      -2.544789       -69.2472 
  70   2.0000      -2.544746       -69.2461 
  71   2.0000      -2.544305       -69.2341 
  72   2.0000      -2.544262       -69.2329 
  73   2.0000      -2.534312       -68.9621 
  74   2.0000      -2.534304       -68.9619 
  75   2.0000      -2.534276       -68.9611 
  76   2.0000      -2.534270       -68.9610 
  77   2.0000      -1.873118       -50.9701 
  78   2.0000      -1.869791       -50.8796 
  79   2.0000      -1.869516       -50.8721 
  80   2.0000      -0.982795       -26.7432 
  81   2.0000      -0.975275       -26.5386 
  82   2.0000      -0.955489       -26.0002 
  83   2.0000      -0.955435       -25.9987 
  84   2.0000      -0.941223       -25.6120 
  85   2.0000      -0.939495       -25.5650 
  86   2.0000      -0.857497       -23.3337 
  87   2.0000      -0.857319       -23.3288 
  88   2.0000      -0.820104       -22.3162 
  89   2.0000      -0.818431       -22.2706 
  90   2.0000      -0.812253       -22.1025 
  91   2.0000      -0.812238       -22.1021 
  92   2.0000      -0.800951       -21.7950 
  93   2.0000      -0.799150       -21.7460 
  94   2.0000      -0.798972       -21.7411 
  95   2.0000      -0.798955       -21.7407 
  96   2.0000      -0.776261       -21.1231 
  97   2.0000      -0.775372       -21.0989 
  98   2.0000      -0.768798       -20.9200 
  99   2.0000      -0.768682       -20.9169 
 100   2.0000      -0.736766       -20.0484 
 101   2.0000      -0.736756       -20.0482 
 102   2.0000      -0.731155       -19.8957 
 103   2.0000      -0.731097       -19.8942 
 104   2.0000      -0.710380       -19.3304 
 105   2.0000      -0.709115       -19.2960 
 106   2.0000      -0.670495       -18.2451 
 107   2.0000      -0.670482       -18.2447 
 108   2.0000      -0.656875       -17.8745 
 109   2.0000      -0.655241       -17.8300 
 110   2.0000      -0.637700       -17.3527 
 111   2.0000      -0.636278       -17.3140 
 112   2.0000      -0.629041       -17.1171 
 113   2.0000      -0.629028       -17.1167 
 114   2.0000      -0.613096       -16.6832 
 115   2.0000      -0.610622       -16.6159 
 116   2.0000      -0.605853       -16.4861 
 117   2.0000      -0.605830       -16.4855 
 118   2.0000      -0.591878       -16.1058 
 119   2.0000      -0.591706       -16.1011 
 120   2.0000      -0.572546       -15.5798 
 121   2.0000      -0.570461       -15.5230 
 122   2.0000      -0.557307       -15.1651 
 123   2.0000      -0.546278       -14.8650 
 124   2.0000      -0.520357       -14.1596 
 125   2.0000      -0.520304       -14.1582 
 126   2.0000      -0.516253       -14.0480 
 127   2.0000      -0.516215       -14.0469 
 128   2.0000      -0.508743       -13.8436 
 129   2.0000      -0.507771       -13.8172 
 130   2.0000      -0.498551       -13.5663 
 131   2.0000      -0.488994       -13.3062 
 132   2.0000      -0.483328       -13.1520 
 133   2.0000      -0.477510       -12.9937 
 134   2.0000      -0.477288       -12.9877 
 135   2.0000      -0.475494       -12.9389 
 136   2.0000      -0.475165       -12.9299 
 137   2.0000      -0.474491       -12.9116 
 138   2.0000      -0.461890       -12.5687 
 139   2.0000      -0.461747       -12.5648 
 140   2.0000      -0.455306       -12.3895 
 141   2.0000      -0.453148       -12.3308 
 142   2.0000      -0.446709       -12.1556 
 143   2.0000      -0.446030       -12.1371 
 144   2.0000      -0.445033       -12.1100 
 145   2.0000      -0.443479       -12.0677 
 146   2.0000      -0.441187       -12.0053 
 147   2.0000      -0.440847       -11.9961 
 148   2.0000      -0.436015       -11.8646 
 149   2.0000      -0.434818       -11.8320 
 150   2.0000      -0.434395       -11.8205 
 151   2.0000      -0.432580       -11.7711 
 152   2.0000      -0.432183       -11.7603 
 153   2.0000      -0.423848       -11.5335 
 154   2.0000      -0.419754       -11.4221 
 155   2.0000      -0.413706       -11.2575 
 156   2.0000      -0.412614       -11.2278 
 157   2.0000      -0.411541       -11.1986 
 158   2.0000      -0.410821       -11.1790 
 159   2.0000      -0.406397       -11.0586 
 160   2.0000      -0.403130       -10.9697 
 161   2.0000      -0.403098       -10.9689 
 162   2.0000      -0.385643       -10.4939 
 163   2.0000      -0.383866       -10.4455 
 164   2.0000      -0.383589       -10.4380 
 165   2.0000      -0.377085       -10.2610 
 166   2.0000      -0.376889       -10.2557 
 167   2.0000      -0.373771       -10.1708 
 168   2.0000      -0.368764       -10.0346 
 169   2.0000      -0.365950        -9.9580 
 170   2.0000      -0.365932        -9.9575 
 171   2.0000      -0.353602        -9.6220 
 172   2.0000      -0.353415        -9.6169 
 173   2.0000      -0.349105        -9.4996 
 174   2.0000      -0.343301        -9.3417 
 175   2.0000      -0.341229        -9.2853 
 176   2.0000      -0.341106        -9.2820 
 177   2.0000      -0.332144        -9.0381 
 178   2.0000      -0.331166        -9.0115 
 179   2.0000      -0.330561        -8.9950 
 180   2.0000      -0.327373        -8.9083 
 181   2.0000      -0.326035        -8.8719 
 182   2.0000      -0.324991        -8.8434 
 183   2.0000      -0.324067        -8.8183 
 184   2.0000      -0.323887        -8.8134 
 185   2.0000      -0.310977        -8.4621 
 186   2.0000      -0.310716        -8.4550 
 187   2.0000      -0.304088        -8.2746 
 188   2.0000      -0.295502        -8.0410 
 189   2.0000      -0.295306        -8.0357 
 190   2.0000      -0.283973        -7.7273 
 191   2.0000      -0.283868        -7.7245 
 192   2.0000      -0.276366        -7.5203 
 193   2.0000      -0.276294        -7.5183 
 194   2.0000      -0.263125        -7.1600 
 195   2.0000      -0.263055        -7.1581 
 196   2.0000      -0.254949        -6.9375 
 197   2.0000      -0.253155        -6.8887 
 198   2.0000      -0.239934        -6.5289 
 199   2.0000      -0.239716        -6.5230 
 200   2.0000      -0.205246        -5.5850 
 201   2.0000      -0.203421        -5.5354 
 202   2.0000      -0.203350        -5.5334 
 203   0.0000      -0.125061        -3.4031 
 204   0.0000      -0.124694        -3.3931 
 205   0.0000      -0.120000        -3.2654 
 206   0.0000      -0.114755        -3.1226 
 207   0.0000      -0.089791        -2.4433 
 208   0.0000      -0.089075        -2.4238 
 209   0.0000      -0.088995        -2.4217 
 210   0.0000      -0.074621        -2.0305 
 211   0.0000      -0.074538        -2.0283 
 212   0.0000      -0.073929        -2.0117 
 213   0.0000      -0.056584        -1.5397 
 214   0.0000      -0.056385        -1.5343 
 215   0.0000      -0.037193        -1.0121 
 216   0.0000      -0.028175        -0.7667 
 217   0.0000      -0.027805        -0.7566 
 218   0.0000      -0.025333        -0.6893 
 219   0.0000      -0.025157        -0.6845 
 220   0.0000      -0.019460        -0.5295 
 221   0.0000      -0.018045        -0.4910 
 222   0.0000      -0.012780        -0.3478 
 223   0.0000       0.045948         1.2503 
 224   0.0000       0.051118         1.3910 
 225   0.0000       0.051441         1.3998 
 226   0.0000       0.061865         1.6834 
 227   0.0000       0.065591         1.7848 
 228   0.0000       0.065905         1.7934 
 229   0.0000       0.066842         1.8189 
 230   0.0000       0.072634         1.9765 
 231   0.0000       0.081924         2.2293 
 232   0.0000       0.082596         2.2476 
 233   0.0000       0.089601         2.4382 
 234   0.0000       0.090413         2.4603 
 235   0.0000       0.092636         2.5208 
 236   0.0000       0.092748         2.5238 
 237   0.0000       0.096042         2.6134 
 238   0.0000       0.096895         2.6367 
 239   0.0000       0.097838         2.6623 
 240   0.0000       0.102787         2.7970 
 241   0.0000       0.108766         2.9597 
 242   0.0000       0.109091         2.9685 
 243   0.0000       0.111563         3.0358 
 244   0.0000       0.115520         3.1435 
 245   0.0000       0.118593         3.2271 
 246   0.0000       0.123177         3.3518 
 247   0.0000       0.126226         3.4348 
 248   0.0000       0.126462         3.4412 
 249   0.0000       0.128271         3.4904 
 250   0.0000       0.132899         3.6164 
 251   0.0000       0.138795         3.7768 
 252   0.0000       0.139336         3.7915 
 253   0.0000       0.143732         3.9112 
 254   0.0000       0.149845         4.0775 
 255   0.0000       0.150504         4.0954 
 256   0.0000       0.151764         4.1297 
 257   0.0000       0.153169         4.1679 
 258   0.0000       0.167998         4.5715 
 259   0.0000       0.169391         4.6094 
 260   0.0000       0.175773         4.7830 
 261   0.0000       0.176074         4.7912 
 262   0.0000       0.180024         4.8987 
 263   0.0000       0.184528         5.0213 
 264   0.0000       0.195083         5.3085 
 265   0.0000       0.198960         5.4140 
 266   0.0000       0.204487         5.5644 
 267   0.0000       0.204882         5.5751 
 268   0.0000       0.204938         5.5766 
 269   0.0000       0.205681         5.5969 
 270   0.0000       0.207938         5.6583 
 271   0.0000       0.211265         5.7488 
 272   0.0000       0.211482         5.7547 
 273   0.0000       0.227438         6.1889 
 274   0.0000       0.228429         6.2159 
 275   0.0000       0.231904         6.3104 
 276   0.0000       0.232756         6.3336 
 277   0.0000       0.241498         6.5715 
 278   0.0000       0.242704         6.6043 
 279   0.0000       0.243244         6.6190 
 280   0.0000       0.243796         6.6340 
 281   0.0000       0.245967         6.6931 
 282   0.0000       0.246117         6.6972 
 283   0.0000       0.247954         6.7472 
 284   0.0000       0.252031         6.8581 
 285   0.0000       0.262651         7.1471 
 286   0.0000       0.263034         7.1575 
 287   0.0000       0.263844         7.1796 
 288   0.0000       0.265107         7.2139 
 289   0.0000       0.276871         7.5341 
 290   0.0000       0.278012         7.5651 
 291   0.0000       0.282723         7.6933 
 292   0.0000       0.285601         7.7716 
 293   0.0000       0.285833         7.7779 
 294   0.0000       0.285975         7.7818 
 295   0.0000       0.294584         8.0160 
 296   0.0000       0.295626         8.0444 
 297   0.0000       0.297350         8.0913 
 298   0.0000       0.309471         8.4211 
 299   0.0000       0.309870         8.4320 
 300   0.0000       0.311931         8.4881 
 301   0.0000       0.313755         8.5377 
 302   0.0000       0.314309         8.5528 
 303   0.0000       0.315048         8.5729 
 304   0.0000       0.325067         8.8455 
 305   0.0000       0.326023         8.8715 
 306   0.0000       0.327439         8.9101 
 307   0.0000       0.328658         8.9432 
 308   0.0000       0.330286         8.9875 
 309   0.0000       0.347644         9.4599 
 310   0.0000       0.355986         9.6869 
 311   0.0000       0.357013         9.7148 
 312   0.0000       0.360450         9.8083 
 313   0.0000       0.360946         9.8218 
 314   0.0000       0.363991         9.9047 
 315   0.0000       0.366747         9.9797 
 316   0.0000       0.369533        10.0555 
 317   0.0000       0.370077        10.0703 
 318   0.0000       0.375382        10.2147 
 319   0.0000       0.375758        10.2249 
 320   0.0000       0.376055        10.2330 
 321   0.0000       0.393515        10.7081 
 322   0.0000       0.395694        10.7674 
 323   0.0000       0.396010        10.7760 
 324   0.0000       0.402444        10.9511 
 325   0.0000       0.403063        10.9679 
 326   0.0000       0.403793        10.9878 
 327   0.0000       0.412806        11.2330 
 328   0.0000       0.414286        11.2733 
 329   0.0000       0.414745        11.2858 
 330   0.0000       0.415329        11.3017 
 331   0.0000       0.417390        11.3578 
 332   0.0000       0.418432        11.3861 
 333   0.0000       0.428783        11.6678 
 334   0.0000       0.432631        11.7725 
 335   0.0000       0.435294        11.8450 
 336   0.0000       0.439723        11.9655 
 337   0.0000       0.440659        11.9909 
 338   0.0000       0.442489        12.0407 
 339   0.0000       0.446123        12.1396 
 340   0.0000       0.446523        12.1505 
 341   0.0000       0.446942        12.1619 
 342   0.0000       0.447251        12.1703 
 343   0.0000       0.448302        12.1989 
 344   0.0000       0.449769        12.2388 
 345   0.0000       0.450327        12.2540 
 346   0.0000       0.452505        12.3133 
 347   0.0000       0.453311        12.3352 
 348   0.0000       0.454451        12.3662 
 349   0.0000       0.456755        12.4289 
 350   0.0000       0.462275        12.5792 
 351   0.0000       0.465261        12.6604 
 352   0.0000       0.465672        12.6716 
 353   0.0000       0.466515        12.6945 
 354   0.0000       0.467502        12.7214 
 355   0.0000       0.468162        12.7393 
 356   0.0000       0.472884        12.8678 
 357   0.0000       0.478059        13.0087 
 358   0.0000       0.478096        13.0096 
 359   0.0000       0.478437        13.0189 
 360   0.0000       0.481837        13.1115 
 361   0.0000       0.488440        13.2911 
 362   0.0000       0.489768        13.3273 
 363   0.0000       0.491279        13.3684 
 364   0.0000       0.498677        13.5697 
 365   0.0000       0.499149        13.5825 
 366   0.0000       0.500534        13.6202 
 367   0.0000       0.501745        13.6532 
 368   0.0000       0.504823        13.7369 
 369   0.0000       0.509554        13.8657 
 370   0.0000       0.513087        13.9618 
 371   0.0000       0.519269        14.1300 
 372   0.0000       0.522316        14.2129 
 373   0.0000       0.522441        14.2163 
 374   0.0000       0.536864        14.6088 
 375   0.0000       0.537364        14.6224 
 376   0.0000       0.545837        14.8530 
 377   0.0000       0.547898        14.9091 
 378   0.0000       0.550004        14.9664 
 379   0.0000       0.552659        15.0386 
 380   0.0000       0.553399        15.0587 
 381   0.0000       0.553933        15.0733 
 382   0.0000       0.557748        15.1771 
 383   0.0000       0.562972        15.3192 
 384   0.0000       0.568818        15.4783 
 385   0.0000       0.570615        15.5272 
 386   0.0000       0.577563        15.7163 
 387   0.0000       0.583105        15.8671 
 388   0.0000       0.585467        15.9314 
 389   0.0000       0.589939        16.0530 
 390   0.0000       0.594840        16.1864 
 391   0.0000       0.598165        16.2769 
 392   0.0000       0.601986        16.3809 
 393   0.0000       0.606612        16.5068 
 394   0.0000       0.612190        16.6585 
 395   0.0000       0.613286        16.6884 
 396   0.0000       0.619179        16.8487 
 397   0.0000       0.619426        16.8554 
 398   0.0000       0.624568        16.9954 
 399   0.0000       0.626480        17.0474 
 400   0.0000       0.629826        17.1384 
 401   0.0000       0.630583        17.1590 
 402   0.0000       0.630860        17.1666 
 403   0.0000       0.632314        17.2061 
 404   0.0000       0.637021        17.3342 
[...]
   202a -> 207a  :     0.012436 (c= -0.11151765)
   202a -> 208a  :     0.043481 (c= -0.20852213)
   202a -> 209a  :     0.193123 (c=  0.43945715)

STATE 16:  E=   0.114372 au      3.112 eV    25101.7 cm**-1 <S**2> =   0.000000
   201a -> 207a  :     0.046757 (c= -0.21623261)
   201a -> 208a  :     0.032872 (c=  0.18130521)
   201a -> 209a  :     0.178911 (c= -0.42297908)
   202a -> 208a  :     0.210283 (c=  0.45856671)
   202a -> 209a  :     0.513378 (c=  0.71650402)

STATE 17:  E=   0.114926 au      3.127 eV    25223.3 cm**-1 <S**2> =   0.000000
   198a -> 203a  :     0.512169 (c=  0.71565975)
   199a -> 204a  :     0.483596 (c=  0.69541097)

STATE 18:  E=   0.115170 au      3.134 eV    25277.0 cm**-1 <S**2> =   0.000000
   198a -> 204a  :     0.442671 (c=  0.66533557)
   199a -> 203a  :     0.547691 (c=  0.74006132)

STATE 19:  E=   0.117619 au      3.201 eV    25814.5 cm**-1 <S**2> =   0.000000
   198a -> 203a  :     0.116703 (c= -0.34161763)
   199a -> 204a  :     0.125225 (c=  0.35387213)
   200a -> 207a  :     0.018630 (c= -0.13649010)
   201a -> 208a  :     0.176226 (c=  0.41979268)
   201a -> 209a  :     0.165595 (c=  0.40693318)
   202a -> 208a  :     0.184680 (c= -0.42974356)
   202a -> 209a  :     0.166867 (c=  0.40849298)

STATE 20:  E=   0.117861 au      3.207 eV    25867.5 cm**-1 <S**2> =   0.000000
   198a -> 203a  :     0.174613 (c= -0.41786699)
   199a -> 204a  :     0.194163 (c=  0.44063900)
   200a -> 207a  :     0.388946 (c= -0.62365498)
   201a -> 208a  :     0.052387 (c= -0.22888198)
   201a -> 209a  :     0.050577 (c= -0.22489389)
   202a -> 208a  :     0.052692 (c=  0.22954669)
   202a -> 209a  :     0.048285 (c= -0.21973865)

STATE 21:  E=   0.119435 au      3.250 eV    26212.9 cm**-1 <S**2> =   0.000000
   197a -> 205a  :     0.017919 (c= -0.13386315)
   198a -> 204a  :     0.040250 (c=  0.20062290)
   199a -> 203a  :     0.036564 (c= -0.19121734)
   200a -> 206a  :     0.010923 (c=  0.10451346)
   200a -> 212a  :     0.015778 (c= -0.12560983)
   201a -> 204a  :     0.013303 (c=  0.11534056)
   201a -> 209a  :     0.402479 (c= -0.63441206)
   201a -> 211a  :     0.028983 (c=  0.17024397)
   202a -> 203a  :     0.012411 (c= -0.11140548)
   202a -> 208a  :     0.356092 (c= -0.59673431)
   202a -> 210a  :     0.026245 (c=  0.16200388)

STATE 22:  E=   0.120010 au      3.266 eV    26339.1 cm**-1 <S**2> =   0.000000
   196a -> 203a  :     0.014666 (c=  0.12110506)
   197a -> 203a  :     0.012904 (c=  0.11359385)
   197a -> 204a  :     0.014315 (c=  0.11964579)
   198a -> 204a  :     0.103825 (c=  0.32221924)
   198a -> 205a  :     0.101002 (c=  0.31780746)
   199a -> 203a  :     0.078876 (c= -0.28084876)
   199a -> 205a  :     0.133761 (c= -0.36573357)
   200a -> 208a  :     0.408043 (c=  0.63878242)
   200a -> 209a  :     0.045936 (c= -0.21432781)
   200a -> 212a  :     0.028041 (c=  0.16745423)
   202a -> 207a  :     0.013686 (c=  0.11698916)

STATE 23:  E=   0.120078 au      3.267 eV    26354.1 cm**-1 <S**2> =   0.000000
   196a -> 203a  :     0.012693 (c= -0.11266339)
   196a -> 204a  :     0.020577 (c=  0.14344735)
   197a -> 203a  :     0.021022 (c=  0.14498978)
   197a -> 204a  :     0.013023 (c= -0.11411715)
   198a -> 204a  :     0.014792 (c= -0.12162330)
   198a -> 205a  :     0.094492 (c= -0.30739601)
   199a -> 203a  :     0.011451 (c=  0.10700904)
   199a -> 205a  :     0.167303 (c= -0.40902679)
   200a -> 208a  :     0.040820 (c= -0.20203867)
   200a -> 209a  :     0.553002 (c= -0.74364098)
   201a -> 207a  :     0.017194 (c=  0.13112419)

STATE 24:  E=   0.120161 au      3.270 eV    26372.2 cm**-1 <S**2> =   0.000000
   196a -> 203a  :     0.013672 (c= -0.11692791)
   198a -> 204a  :     0.277074 (c=  0.52637775)
   199a -> 203a  :     0.207512 (c= -0.45553460)
   200a -> 206a  :     0.016344 (c= -0.12784307)
   200a -> 208a  :     0.249660 (c= -0.49965983)
   200a -> 212a  :     0.106720 (c=  0.32668012)
   201a -> 204a  :     0.016230 (c= -0.12739546)
   201a -> 209a  :     0.016173 (c=  0.12717463)
   202a -> 203a  :     0.015724 (c=  0.12539587)

STATE 25:  E=   0.120655 au      3.283 eV    26480.8 cm**-1 <S**2> =   0.000000
   196a -> 204a  :     0.016361 (c= -0.12791133)
   197a -> 203a  :     0.015286 (c= -0.12363619)
   198a -> 206a  :     0.021774 (c=  0.14755988)
   199a -> 205a  :     0.668113 (c= -0.81738181)
   200a -> 208a  :     0.029126 (c= -0.17066268)
   200a -> 209a  :     0.208423 (c=  0.45653367)
   202a -> 207a  :     0.012018 (c= -0.10962671)

STATE 26:  E=   0.120825 au      3.288 eV    26517.9 cm**-1 <S**2> =   0.000000
   196a -> 203a  :     0.010695 (c= -0.10341662)
   198a -> 204a  :     0.013118 (c= -0.11453550)
   198a -> 205a  :     0.768734 (c=  0.87677460)
   199a -> 203a  :     0.011346 (c=  0.10651952)
   199a -> 206a  :     0.025808 (c= -0.16064959)
   200a -> 208a  :     0.104542 (c= -0.32333022)
   200a -> 209a  :     0.027180 (c= -0.16486230)

STATE 27:  E=   0.124085 au      3.377 eV    27233.5 cm**-1 <S**2> =   0.000000
   196a -> 205a  :     0.017839 (c= -0.13356303)
   198a -> 203a  :     0.154145 (c=  0.39261277)
   199a -> 204a  :     0.157475 (c= -0.39683093)
   200a -> 205a  :     0.011279 (c=  0.10620205)
   200a -> 207a  :     0.519535 (c= -0.72078761)
   201a -> 203a  :     0.014366 (c= -0.11985944)
   201a -> 208a  :     0.012499 (c=  0.11180010)
   201a -> 209a  :     0.012500 (c=  0.11180544)
   202a -> 204a  :     0.014578 (c=  0.12073763)
   202a -> 208a  :     0.012582 (c= -0.11217125)
   202a -> 209a  :     0.012314 (c=  0.11096885)

STATE 28:  E=   0.125940 au      3.427 eV    27640.6 cm**-1 <S**2> =   0.000000
   198a -> 205a  :     0.024266 (c=  0.15577478)
   199a -> 206a  :     0.957063 (c=  0.97829605)

STATE 29:  E=   0.126132 au      3.432 eV    27682.8 cm**-1 <S**2> =   0.000000
   198a -> 206a  :     0.960214 (c= -0.97990505)
   199a -> 205a  :     0.020800 (c= -0.14422038)

STATE 30:  E=   0.128800 au      3.505 eV    28268.4 cm**-1 <S**2> =   0.000000
   201a -> 210a  :     0.751714 (c=  0.86701450)
   202a -> 210a  :     0.116684 (c=  0.34159089)
   202a -> 211a  :     0.127920 (c= -0.35765970)


-----------------------------
TD-DFT/TDA-EXCITATION SPECTRA
-----------------------------

Center of mass = (  0.5743,  0.4420,  0.1581)
Calculating the Dipole integrals                  ... done
Transforming integrals                            ... done
Calculating the Linear Momentum integrals         ... done
Transforming integrals                            ... done
Calculating angular momentum integrals            ... done
Transforming integrals                            ... done

-----------------------------------------------------------------------------
         ABSORPTION SPECTRUM VIA TRANSITION ELECTRIC DIPOLE MOMENTS
-----------------------------------------------------------------------------
State   Energy    Wavelength  fosc         T2        TX        TY        TZ  
        (cm-1)      (nm)                 (au**2)    (au)      (au)      (au) 
-----------------------------------------------------------------------------
   1   17208.9    581.1   0.000308881   0.00591  -0.00881   0.01511  -0.07485
   2   17805.7    561.6   0.000041511   0.00077   0.00882  -0.02432  -0.00992
   3   18126.7    551.7   0.009436726   0.17139   0.01391  -0.38355  -0.15518
   4   18203.3    549.4   0.008272003   0.14960   0.34306   0.07652  -0.16143
   5   18659.0    535.9   0.015812421   0.27899  -0.32106  -0.41890  -0.02077
   6   18674.9    535.5   0.015846489   0.27935   0.36245  -0.24583  -0.29588
   7   18776.6    532.6   0.036886846   0.64674   0.42127  -0.22730   0.64623
   8   19756.5    506.2   0.000427444   0.00712   0.01759   0.08230   0.00635
   9   20235.1    494.2   0.043445350   0.70683   0.67159   0.47333  -0.17819
  10   20243.6    494.0   0.044562274   0.72470  -0.33924   0.65503   0.42491
  11   20799.5    480.8   0.777958616  12.31342   1.81107  -0.97486   2.84307
  12   23796.5    420.2   0.000013479   0.00019   0.00321   0.01313   0.00192
  13   25056.4    399.1   0.000874180   0.01149   0.09784   0.02412   0.03648
  14   25069.0    398.9   0.000357377   0.00469  -0.02335   0.05462   0.03412
  15   25095.3    398.5   0.000100269   0.00132  -0.03555  -0.00368  -0.00616
  16   25101.7    398.4   0.000209810   0.00275  -0.03646   0.03329   0.01772
  17   25223.3    396.5   0.000024057   0.00031   0.01271  -0.00517   0.01122
  18   25277.0    395.6   0.000000911   0.00001   0.00052  -0.00243  -0.00239
  19   25814.5    387.4   0.176125030   2.24612   0.75644  -0.43382   1.21890
  20   25867.5    386.6   0.443837002   5.64865  -1.22087   0.66495  -1.92768
  21   26212.9    381.5   0.001072093   0.01346  -0.04549  -0.09712  -0.04431
  22   26339.1    379.7   0.038967797   0.48706   0.35131   0.60244   0.02647
  23   26354.1    379.4   0.050500584   0.63085   0.57698  -0.30537  -0.45243
  24   26372.2    379.2   0.022988138   0.28697  -0.11551  -0.51146  -0.10968
  25   26480.8    377.6   0.035625095   0.44289  -0.59954  -0.14260   0.25123
  26   26517.9    377.1   0.023179044   0.28776   0.06246  -0.47948  -0.23228
  27   27233.5    367.2   0.013931588   0.16841  -0.21495   0.11357  -0.33062
  28   27640.6    361.8   0.002258532   0.02690   0.01470  -0.15246  -0.05866
  29   27682.8    361.2   0.002539350   0.03020  -0.14353  -0.04925   0.08468
  30   28268.4    353.8   0.000038099   0.00044   0.01049  -0.00619   0.01718

-----------------------------------------------------------------------------
         ABSORPTION SPECTRUM VIA TRANSITION VELOCITY DIPOLE MOMENTS
-----------------------------------------------------------------------------
State   Energy    Wavelength   fosc        P2         PX        PY        PZ  
        (cm-1)      (nm)                 (au**2)     (au)      (au)      (au) 
-----------------------------------------------------------------------------
   1   17208.9    581.1   0.000059366   0.00001   0.00199  -0.00081   0.00154
   2   17805.7    561.6   0.000001776   0.00000  -0.00002  -0.00038  -0.00026
   3   18126.7    551.7   0.000921852   0.00011   0.00068  -0.01003  -0.00363
   4   18203.3    549.4   0.000816114   0.00010   0.00844   0.00229  -0.00501
   5   18659.0    535.9   0.001647796   0.00021  -0.00737  -0.01232   0.00200
   6   18674.9    535.5   0.001658578   0.00021   0.01005  -0.00648  -0.00829
   7   18776.6    532.6   0.030793107   0.00395  -0.03295   0.01684  -0.05082
   8   19756.5    506.2   0.000057348   0.00001   0.00098   0.00254   0.00058
   9   20235.1    494.2   0.006923382   0.00096   0.02102   0.01900  -0.01243
  10   20243.6    494.0   0.006616826   0.00092  -0.01189   0.02273   0.01604
  11   20799.5    480.8   0.139332340   0.01981  -0.07385   0.03820  -0.11355
  12   23796.5    420.2   0.000000227   0.00000  -0.00014  -0.00012   0.00005
  13   25056.4    399.1   0.000234299   0.00004  -0.00554  -0.00094  -0.00292
  14   25069.0    398.9   0.000094276   0.00002   0.00136  -0.00315  -0.00210
  15   25095.3    398.5   0.000022861   0.00000   0.00131  -0.00042   0.00142
  16   25101.7    398.4   0.000010063   0.00000   0.00102  -0.00073   0.00037
  17   25223.3    396.5   0.000015177   0.00000  -0.00125   0.00055  -0.00086
  18   25277.0    395.6   0.000001915   0.00000  -0.00013   0.00047   0.00031
  19   25814.5    387.4   0.023562302   0.00416  -0.03359   0.01766  -0.05212
  20   25867.5    386.6   0.170317745   0.03011   0.08987  -0.04814   0.14042
  21   26212.9    381.5   0.000016330   0.00000   0.00038  -0.00124   0.00111
  22   26339.1    379.7   0.000036341   0.00001  -0.00005   0.00179  -0.00183
  23   26354.1    379.4   0.000017749   0.00000   0.00072   0.00013  -0.00163
  24   26372.2    379.2   0.000035758   0.00001   0.00092   0.00219   0.00089
  25   26480.8    377.6   0.001066835   0.00019   0.01364   0.00218  -0.00148
  26   26517.9    377.1   0.001762309   0.00032  -0.00096   0.01582   0.00826
  27   27233.5    367.2   0.003451450   0.00064   0.01279  -0.00750   0.02056
  28   27640.6    361.8   0.001869867   0.00035  -0.00181   0.01741   0.00685
  29   27682.8    361.2   0.000725259   0.00014   0.00954   0.00341  -0.00589
  30   28268.4    353.8   0.000009025   0.00000  -0.00030   0.00048  -0.00119

-------------------------------------------------------------------
                             CD SPECTRUM
-------------------------------------------------------------------
State  Energy     Wavelength     R         MX        MY        MZ   
       (cm-1)       (nm)     (1e40*cgs)   (au)      (au)      (au)  
-------------------------------------------------------------------
   1   17208.9    581.1     -7.47734   0.12756  -0.05816   0.18512
   2   17805.7    561.6     -0.50539   0.00846   0.04387   0.00806
   3   18126.7    551.7    -67.22422  -0.04588   0.31413   0.13832
   4   18203.3    549.4     64.88770   0.30387   0.11040  -0.15450
   5   18659.0    535.9      0.91955   0.03153  -0.02740  -0.02873
   6   18674.9    535.5      1.00715  -0.02474  -0.04297  -0.00182
   7   18776.6    532.6      4.09321   0.00392  -0.00391   0.00951
   8   19756.5    506.2     -0.34979   0.00649  -0.00980  -0.00784
   9   20235.1    494.2     17.73968   0.05180  -0.00924  -0.04047
  10   20243.6    494.0    -23.99805  -0.01128  -0.07498  -0.01321
  11   20799.5    480.8     23.88687  -0.00323  -0.00363   0.01863
  12   23796.5    420.2      0.01008  -0.00173   0.00188   0.00117
  13   25056.4    399.1     -1.77803  -0.06053   0.00379   0.05647
  14   25069.0    398.9      2.26616   0.01048   0.08511   0.01180
  15   25095.3    398.5     -1.09426   0.05523  -0.02564   0.07336
  16   25101.7    398.4     -0.20500   0.02777  -0.00014   0.03286
  17   25223.3    396.5      0.45167   0.02649  -0.01794   0.04713
  18   25277.0    395.6      0.00947  -0.00234  -0.00833  -0.00045
  19   25814.5    387.4      3.80517  -0.01136   0.00089   0.01399
  20   25867.5    386.6     22.30508  -0.00504   0.00569  -0.01939
  21   26212.9    381.5     -1.02435  -0.01436   0.02172   0.01618
  22   26339.1    379.7    -11.19089   0.16527  -0.12920  -0.14986
  23   26354.1    379.4     25.44755   0.17983   0.21780  -0.03698
  24   26372.2    379.2    -26.87384  -0.05138   0.10817   0.06942
  25   26480.8    377.6      3.99358  -0.01012  -0.01005   0.00385
  26   26517.9    377.1      5.47742   0.00527  -0.01868  -0.01003
  27   27233.5    367.2     -2.38099   0.00203  -0.00222   0.01319
  28   27640.6    361.8     11.26298   0.01330  -0.13408  -0.05545
  29   27682.8    361.2    -12.58288   0.13238   0.03917  -0.06802
  30   28268.4    353.8      0.09020   0.00922  -0.00172   0.00489

-------------------------------------------------------------------
         CD SPECTRUM VIA TRANSITION VELOCITY DIPOLE MOMENTS        
-------------------------------------------------------------------
State  Energy     Wavelength     R         MX        MY        MZ   
       (cm-1)       (nm)     (1e40*cgs)   (au)      (au)      (au)  
-------------------------------------------------------------------
   1   17208.9    581.1     -3.52503   0.12756  -0.05816   0.18512
   2   17805.7    561.6      0.11107   0.00846   0.04387   0.00806
   3   18126.7    551.7     21.02665  -0.04588   0.31413   0.13832
   4   18203.3    549.4    -20.41004   0.30387   0.11040  -0.15450
   5   18659.0    535.9     -0.26487   0.03153  -0.02740  -0.02873
   6   18674.9    535.5     -0.24828  -0.02474  -0.04297  -0.00182
   7   18776.6    532.6      3.73630   0.00392  -0.00391   0.00951
   8   19756.5    506.2      0.12075   0.00649  -0.00980  -0.00784
   9   20235.1    494.2     -7.24230   0.05180  -0.00924  -0.04047
  10   20243.6    494.0      9.11039  -0.01128  -0.07498  -0.01321
  11   20799.5    480.8     10.02891  -0.00323  -0.00363   0.01863
  12   23796.5    420.2     -0.00029  -0.00173   0.00188   0.00117
  13   25056.4    399.1     -0.68844  -0.06053   0.00379   0.05647
  14   25069.0    398.9      1.14896   0.01048   0.08511   0.01180
  15   25095.3    398.5     -0.77350   0.05523  -0.02564   0.07336
  16   25101.7    398.4     -0.16825   0.02777  -0.00014   0.03286
  17   25223.3    396.5      0.34370   0.02649  -0.01794   0.04713
  18   25277.0    395.6      0.01518  -0.00234  -0.00833  -0.00045
  19   25814.5    387.4      1.32965  -0.01136   0.00089   0.01399
  20   25867.5    386.6     13.79749  -0.00504   0.00569  -0.01939
  21   26212.9    381.5      0.05689  -0.01436   0.02172   0.01618
  22   26339.1    379.7     -0.14208   0.16527  -0.12920  -0.14986
  23   26354.1    379.4     -0.85694   0.17983   0.21780  -0.03698
  24   26372.2    379.2     -0.98600  -0.05138   0.10817   0.06942
  25   26480.8    377.6      0.64769  -0.01012  -0.01005   0.00385
  26   26517.9    377.1      1.49639   0.00527  -0.01868  -0.01003
  27   27233.5    367.2     -1.19244   0.00203  -0.00222   0.01319
  28   27640.6    361.8     10.24967   0.01330  -0.13408  -0.05545
  29   27682.8    361.2     -6.71417   0.13238   0.03917  -0.06802
  30   28268.4    353.8      0.03450   0.00922  -0.00172   0.00489

Total run time:      207.640 sec

           *** ORCA-CIS/TD-DFT FINISHED WITHOUT ERROR ***

Maximum memory used throughout the entire CIS-calculation: 1596.4 MB

-----------------------
CIS/TD-DFT TOTAL ENERGY
-----------------------

    E(SCF)  =  -7181.728748436 Eh
    DE(CIS) =      0.078409540 Eh (Root  1)
    ----------------------------- ---------
    E(tot)  =  -7181.650338896 Eh


-------------------------   --------------------
FINAL SINGLE POINT ENERGY     -7181.650338896185
-------------------------   --------------------


                            ***************************************
                            *     ORCA property calculations      *
                            ***************************************

                                    ---------------------
                                    Active property flags
                                    ---------------------
   (+) Dipole Moment


------------------------------------------------------------------------------
                       ORCA ELECTRIC PROPERTIES CALCULATION
------------------------------------------------------------------------------

Dipole Moment Calculation                       ... on
Quadrupole Moment Calculation                   ... off
Polarizability Calculation                      ... off
GBWName                                         ... 69_vertical_r2scan/69_vertical_r2scan.gbw
Electron density                                ... 69_vertical_r2scan/69_vertical_r2scan.scfp
The origin for moment calculation is the CENTER OF MASS  = ( 0.574299,  0.441955  0.158129)

-------------
DIPOLE MOMENT
-------------
                                X             Y             Z
Electronic contribution:     -0.34410      -2.83451      -0.78180
Nuclear contribution   :      0.31492       2.69186       0.76091
                        -----------------------------------------
Total Dipole Moment    :     -0.02917      -0.14264      -0.02089
                        -----------------------------------------
Magnitude (a.u.)       :      0.14709
Magnitude (Debye)      :      0.37386



--------------------
Rotational spectrum 
--------------------
 
Rotational constants in cm-1:     0.003962     0.000515     0.000513 
Rotational constants in MHz :   118.767809    15.436943    15.369586 

 Dipole components along the rotational axes: 
x,y,z [a.u.] :     0.007462     0.055167     0.136144 
x,y,z [Debye]:     0.018966     0.140223     0.346051 

 

Timings for individual modules:

Sum of individual times         ...      304.646 sec (=   5.077 min)
GTO integral calculation        ...        5.714 sec (=   0.095 min)   1.9 %
SCF iterations                  ...       90.469 sec (=   1.508 min)  29.7 %
CIS module                      ...      208.463 sec (=   3.474 min)  68.4 %
                             ****ORCA TERMINATED NORMALLY****
TOTAL RUN TIME: 0 days 0 hours 5 minutes 7 seconds 163 msec
